PRIMVEC
2.53778 2.53778 0.00000
0.00000 2.53778 2.53778
2.53778 0.00000 2.53778
PRIMCOORD
3 1
Hf 0.0000000 0.0000000 0.0000000 0.0000000 0.0000000 0.0000000
O 1.26889   1.26889   3.80668 0.0000000 0.0000000 0.0000000
O 1.26889   1.26889   6.34446 0.0000000 0.0000000 0.0000000
