
.Version 9.4.2 of ABINIT 
.(MPI version, prepared for a x86_64_linux_intel19.0 computer) 

.Copyright (C) 1998-2021 ABINIT group . 
 ABINIT comes with ABSOLUTELY NO WARRANTY.
 It is free software, and you are welcome to redistribute it
 under certain conditions (GNU General Public License,
 see ~abinit/COPYING or http://www.gnu.org/copyleft/gpl.txt).

 ABINIT is a project of the Universite Catholique de Louvain,
 Corning Inc. and other collaborators, see ~abinit/doc/developers/contributors.txt .
 Please read https://docs.abinit.org/theory/acknowledgments for suggested
 acknowledgments of the ABINIT effort.
 For more information, see https://www.abinit.org .

.Starting date : Sun 20 Jun 2021.
- ( at 13h20 )
  
- input  file    -> /p/work1/jiahaoz/HfO4/CUBIC_ITERATE/iterone/P0.02/dfpt0
- output file    -> /p/work1/jiahaoz/HfO4/CUBIC_ITERATE/iterone/P0.02/dfpt0.abo
- root for input  files -> i
- root for output files -> o
 
 
 DATASET    1 : space group P-4 2 m (#111); Bravais tP (primitive tetrag.)
================================================================================
 Values of the parameters that define the memory need for DATASET  1.
     intxc =       0    ionmov =       0      iscf =       7    lmnmax =       8
     lnmax =       8     mgfft =      48  mpssoang =       4    mqgrid =    3001
     natom =      12  nloc_mem =       1    nspden =       1   nspinor =       1
    nsppol =       1      nsym =       8    n1xccc =    2501    ntypat =       2
    occopt =       1   xclevel =       2
-    mband =          48        mffmem =           1         mkmem =           2
       mpw =        6126          nfft =      110592          nkpt =          36
================================================================================
P This job should need less than                      46.112 Mbytes of memory.
  Rough estimation (10% accuracy) of disk space for files :
_ WF disk file :    161.527 Mbytes ; DEN or POT disk file :      0.846 Mbytes.
================================================================================
 
 
 DATASET    2 : space group P-4 2 m (#111); Bravais tP (primitive tetrag.)
================================================================================
 Values of the parameters that define the memory need for DATASET  2.
     intxc =       0    ionmov =       0      iscf =      -2    lmnmax =       8
     lnmax =       8     mgfft =      48  mpssoang =       4    mqgrid =    3001
     natom =      12  nloc_mem =       1    nspden =       1   nspinor =       1
    nsppol =       1      nsym =       8    n1xccc =    2501    ntypat =       2
    occopt =       1   xclevel =       2
-    mband =          48        mffmem =           1         mkmem =           2
       mpw =        6126          nfft =      110592          nkpt =          36
================================================================================
P This job should need less than                      31.768 Mbytes of memory.
  Rough estimation (10% accuracy) of disk space for files :
_ WF disk file :    161.527 Mbytes ; DEN or POT disk file :      0.846 Mbytes.
================================================================================
 
 
 DATASET    3 : space group P-4 2 m (#111); Bravais tP (primitive tetrag.)
================================================================================
 Values of the parameters that define the memory need for DATASET  3 (RF).
     intxc =       0      iscf =       7    lmnmax =       8     lnmax =       8
     mgfft =      48  mpssoang =       4    mqgrid =    3001     natom =      12
  nloc_mem =       1    nspden =       1   nspinor =       1    nsppol =       1
      nsym =       8    n1xccc =    2501    ntypat =       2    occopt =       1
   xclevel =       2
-    mband =          48        mffmem =           1         mkmem =           2
-   mkqmem =           2        mk1mem =           2           mpw =        6126
      nfft =      110592          nkpt =          36
================================================================================
P This job should need less than                      56.902 Mbytes of memory.
  Rough estimation (10% accuracy) of disk space for files :
_ WF disk file :    161.527 Mbytes ; DEN or POT disk file :      0.846 Mbytes.
================================================================================
 
--------------------------------------------------------------------------------
------------- Echo of variables that govern the present computation ------------
--------------------------------------------------------------------------------
-
- outvars: echo of selected default values                                      
-   iomode0 =  0 , fftalg0 =512 , wfoptalg0 =  0
-
- outvars: echo of global parameters not present in the input file              
-  max_nthreads =    0
-
 -outvars: echo values of preprocessed input variables --------
            acell      9.5914334888E+00  9.5914334888E+00  9.5914334888E+00 Bohr
              amu      1.78490000E+02  1.59994000E+01
         berryopt1          0
         berryopt2         -2
         berryopt3          0
          dilatmx      1.05000000E+00
             ecut      2.50000000E+01 Hartree
           ecutsm      5.00000000E-01 Hartree
-          fftalg         512
           getddk1          0
           getddk2          0
           getddk3          2
           getden1          0
           getden2          1
           getden3          0
           getwfk1          0
           getwfk2          1
           getwfk3          2
             iscf1          7
             iscf2         -2
             iscf3          7
           istwfk1       2    0    3    0    0    0    0    6    0    7
                         0    0    0    0    0    0    0    0    0    0
                         0    0    0    0    0    0    4    0    5    0
                         0    0    0    8    0    9
           istwfk2       1    0    1    0    0    0    0    1    0    1
                         0    0    0    0    0    0    0    0    0    0
                         0    0    0    0    0    0    1    0    1    0
                         0    0    0    1    0    1
           istwfk3       1    0    1    0    0    0    0    1    0    1
                         0    0    0    0    0    0    0    0    0    0
                         0    0    0    0    0    0    1    0    1    0
                         0    0    0    1    0    1
              ixc          11
           jdtset        1    2    3
              kpt      0.00000000E+00  0.00000000E+00  0.00000000E+00
                       2.50000000E-01  0.00000000E+00  0.00000000E+00
                       5.00000000E-01  0.00000000E+00  0.00000000E+00
                       0.00000000E+00  2.50000000E-01  0.00000000E+00
                       2.50000000E-01  2.50000000E-01  0.00000000E+00
                       5.00000000E-01  2.50000000E-01  0.00000000E+00
                      -2.50000000E-01  2.50000000E-01  0.00000000E+00
                       0.00000000E+00  5.00000000E-01  0.00000000E+00
                       2.50000000E-01  5.00000000E-01  0.00000000E+00
                       5.00000000E-01  5.00000000E-01  0.00000000E+00
                       0.00000000E+00  0.00000000E+00  2.50000000E-01
                       2.50000000E-01  0.00000000E+00  2.50000000E-01
                       5.00000000E-01  0.00000000E+00  2.50000000E-01
                      -2.50000000E-01  0.00000000E+00  2.50000000E-01
                       0.00000000E+00  2.50000000E-01  2.50000000E-01
                       2.50000000E-01  2.50000000E-01  2.50000000E-01
                       5.00000000E-01  2.50000000E-01  2.50000000E-01
                      -2.50000000E-01  2.50000000E-01  2.50000000E-01
                       0.00000000E+00  5.00000000E-01  2.50000000E-01
                       2.50000000E-01  5.00000000E-01  2.50000000E-01
                       5.00000000E-01  5.00000000E-01  2.50000000E-01
                      -2.50000000E-01  5.00000000E-01  2.50000000E-01
                       0.00000000E+00 -2.50000000E-01  2.50000000E-01
                       2.50000000E-01 -2.50000000E-01  2.50000000E-01
                       5.00000000E-01 -2.50000000E-01  2.50000000E-01
                      -2.50000000E-01 -2.50000000E-01  2.50000000E-01
                       0.00000000E+00  0.00000000E+00  5.00000000E-01
                       2.50000000E-01  0.00000000E+00  5.00000000E-01
                       5.00000000E-01  0.00000000E+00  5.00000000E-01
                       0.00000000E+00  2.50000000E-01  5.00000000E-01
                       2.50000000E-01  2.50000000E-01  5.00000000E-01
                       5.00000000E-01  2.50000000E-01  5.00000000E-01
                      -2.50000000E-01  2.50000000E-01  5.00000000E-01
                       0.00000000E+00  5.00000000E-01  5.00000000E-01
                       2.50000000E-01  5.00000000E-01  5.00000000E-01
                       5.00000000E-01  5.00000000E-01  5.00000000E-01
           kptopt           2
         kptrlatt        4    0    0      0    4    0      0    0    4
          kptrlen      3.83657340E+01
P           mkmem           2
P          mkqmem           2
P          mk1mem           2
            natom          12
            nband          48
           nbdbuf1          0
           nbdbuf2          2
           nbdbuf3          0
           ndtset           3
            ngfft          48      48      48
             nkpt          36
            nstep1        100
            nstep2         30
            nstep3        100
             nsym           8
           ntypat           2
              occ      2.000000  2.000000  2.000000  2.000000  2.000000  2.000000
                       2.000000  2.000000  2.000000  2.000000  2.000000  2.000000
                       2.000000  2.000000  2.000000  2.000000  2.000000  2.000000
                       2.000000  2.000000  2.000000  2.000000  2.000000  2.000000
                       2.000000  2.000000  2.000000  2.000000  2.000000  2.000000
                       2.000000  2.000000  2.000000  2.000000  2.000000  2.000000
                       2.000000  2.000000  2.000000  2.000000  2.000000  2.000000
                       2.000000  2.000000  2.000000  2.000000  2.000000  2.000000
        optdriver1          0
        optdriver2          0
        optdriver3          1
        pawecutdg      3.00000000E+01 Hartree
         pawxcdev           0
           prtden1          1
           prtden2          0
           prtden3          0
           prteig           0
            prtwf1          1
            prtwf2          1
            prtwf3          0
          rfatpol1          1       1
          rfatpol2          1       1
          rfatpol3          1      12
            rfdir1          0       0       0
            rfdir2          1       1       1
            rfdir3          1       1       1
           rfelfd1          0
           rfelfd2          0
           rfelfd3          3
           rfphon1          0
           rfphon2          0
           rfphon3          1
           rfstrs1          0
           rfstrs2          0
           rfstrs3          3
          spgroup         111
        symmorphi           0
           symrel      1  0  0   0  1  0   0  0  1      -1  0  0   0  1  0   0  0 -1
                      -1  0  0   0 -1  0   0  0  1       1  0  0   0 -1  0   0  0 -1
                       0  1  0   1  0  0   0  0  1       0 -1  0   1  0  0   0  0 -1
                       0 -1  0  -1  0  0   0  0  1       0  1  0  -1  0  0   0  0 -1
           toldfe1     1.00000000E-13 Hartree
           toldfe2     0.00000000E+00 Hartree
           toldfe3     0.00000000E+00 Hartree
           tolvrs1     0.00000000E+00
           tolvrs2     0.00000000E+00
           tolvrs3     1.00000000E-13
           tolwfr1     0.00000000E+00
           tolwfr2     1.00000000E-22
           tolwfr3     0.00000000E+00
            typat      1  1  1  1  2  2  2  2  2  2  2  2
              wtk        0.01563    0.03125    0.01563    0.03125    0.03125    0.03125
                         0.03125    0.01563    0.03125    0.01563    0.03125    0.03125
                         0.03125    0.03125    0.03125    0.03125    0.03125    0.03125
                         0.03125    0.03125    0.03125    0.03125    0.03125    0.03125
                         0.03125    0.03125    0.01563    0.03125    0.01563    0.03125
                         0.03125    0.03125    0.03125    0.01563    0.03125    0.01563
           xangst      0.0000000000E+00  0.0000000000E+00  0.0000000000E+00
                       2.5377840000E+00  2.5377840000E+00  0.0000000000E+00
                       0.0000000000E+00  2.5377840000E+00  2.5377840000E+00
                       2.5377840000E+00  0.0000000000E+00  2.5377840000E+00
                       1.2689242770E+00  1.2689242770E+00  1.0234194571E+00
                       1.2688260153E+00  1.2688260153E+00  3.5612132522E+00
                       3.8066437230E+00  3.8066437230E+00  1.0234194571E+00
                       3.8067419847E+00  3.8067419847E+00  3.5612132522E+00
                       1.2688260153E+00  3.8067419847E+00  1.5143547478E+00
                       1.2689242770E+00  3.8066437230E+00  4.0521485429E+00
                       3.8067419847E+00  1.2688260153E+00  1.5143547478E+00
                       3.8066437230E+00  1.2689242770E+00  4.0521485429E+00
            xcart      0.0000000000E+00  0.0000000000E+00  0.0000000000E+00
                       4.7957167444E+00  4.7957167444E+00  0.0000000000E+00
                       0.0000000000E+00  4.7957167444E+00  4.7957167444E+00
                       4.7957167444E+00  0.0000000000E+00  4.7957167444E+00
                       2.3979193669E+00  2.3979193669E+00  1.9339824929E+00
                       2.3977336793E+00  2.3977336793E+00  6.7297177474E+00
                       7.1935141219E+00  7.1935141219E+00  1.9339824929E+00
                       7.1936998096E+00  7.1936998096E+00  6.7297177474E+00
                       2.3977336793E+00  7.1936998096E+00  2.8617157415E+00
                       2.3979193669E+00  7.1935141219E+00  7.6574509959E+00
                       7.1936998096E+00  2.3977336793E+00  2.8617157415E+00
                       7.1935141219E+00  2.3979193669E+00  7.6574509959E+00
             xred      0.0000000000E+00  0.0000000000E+00  0.0000000000E+00
                       5.0000000000E-01  5.0000000000E-01  0.0000000000E+00
                       0.0000000000E+00  5.0000000000E-01  5.0000000000E-01
                       5.0000000000E-01  0.0000000000E+00  5.0000000000E-01
                       2.5000635929E-01  2.5000635929E-01  2.0163643893E-01
                       2.4998699955E-01  2.4998699955E-01  7.0163836878E-01
                       7.4999364071E-01  7.4999364071E-01  2.0163643893E-01
                       7.5001300045E-01  7.5001300045E-01  7.0163836878E-01
                       2.4998699955E-01  7.5001300045E-01  2.9836163122E-01
                       2.5000635929E-01  7.4999364071E-01  7.9836356107E-01
                       7.5001300045E-01  2.4998699955E-01  2.9836163122E-01
                       7.4999364071E-01  2.5000635929E-01  7.9836356107E-01
            znucl       72.00000    8.00000
 
================================================================================
 
 chkinp: Checking input parameters for consistency, jdtset=   1.
 
 chkinp: Checking input parameters for consistency, jdtset=   2.
 
 chkinp: Checking input parameters for consistency, jdtset=   3.
 
================================================================================
== DATASET  1 ==================================================================
-   mpi_nproc: 32, omp_nthreads: -1 (-1 if OMP is not activated)
-    --> not optimal distribution: autoparal keyword recommended in input file <--
 

--- !DatasetInfo
iteration_state: {dtset: 1, }
dimensions: {natom: 12, nkpt: 36, mband: 48, nsppol: 1, nspinor: 1, nspden: 1, mpw: 6126, }
cutoff_energies: {ecut:  25.0, pawecutdg:  30.0, }
electrons: {nelect:   9.60000000E+01, charge:   0.00000000E+00, occopt:   1.00000000E+00, tsmear:   1.00000000E-02, }
meta: {optdriver: 0, ionmov: 0, optcell: 0, iscf: 7, paral_kgb: 0, }
...

 Exchange-correlation functional for the present dataset will be:
  GGA: Perdew-Burke-Ernzerhof functional - ixc=11
 Citation for XC functional:
  J.P.Perdew, K.Burke, M.Ernzerhof, PRL 77, 3865 (1996)
 
 Real(R)+Recip(G) space primitive vectors, cartesian coordinates (Bohr,Bohr^-1):
 R(1)=  9.5914335  0.0000000  0.0000000  G(1)=  0.1042597  0.0000000  0.0000000
 R(2)=  0.0000000  9.5914335  0.0000000  G(2)=  0.0000000  0.1042597  0.0000000
 R(3)=  0.0000000  0.0000000  9.5914335  G(3)=  0.0000000  0.0000000  0.1042597
 Unit cell volume ucvol=  8.8236964E+02 bohr^3
 Angles (23,13,12)=  9.00000000E+01  9.00000000E+01  9.00000000E+01 degrees
 
 getcut: wavevector=  0.0000  0.0000  0.0000  ngfft=  48  48  48
         ecut(hartree)=     27.563   => boxcut(ratio)=   2.11755
 
--- Pseudopotential description ------------------------------------------------
- pspini: atom type   1  psp file is /p/work1/jiahaoz/HfO4/pbe_s_sr/Hf.psp8
- pspatm: opening atomic psp file    /p/work1/jiahaoz/HfO4/pbe_s_sr/Hf.psp8
- Hf    ONCVPSP  r_core=  1.72  1.72  1.72  2.43
- 72.00000  12.00000    160625                znucl, zion, pspdat
    8   11    3    4       600   0.00000      pspcod,pspxc,lmax,lloc,mmax,r2well
    5.99000000000000    5.40000000000000    0.00000000000000   rchrg,fchrg,qchrg
     nproj     2     2     2     2
     extension_switch     1
  pspatm : epsatm=   21.98649506
         --- l  ekb(1:nproj) -->
             0    5.812335   -0.521211
             1   -3.038329    2.466565
             2    2.060039    0.471534
             3    9.947446    0.353012
 pspatm: atomic psp has been read  and splines computed
 
- pspini: atom type   2  psp file is /p/work1/jiahaoz/HfO4/pbe_s_sr/O.psp8
- pspatm: opening atomic psp file    /p/work1/jiahaoz/HfO4/pbe_s_sr/O.psp8
- O     ONCVPSP  r_core=  1.36  1.46  1.26
-  8.00000   6.00000    151103                znucl, zion, pspdat
    8   11    2    4       600   0.00000      pspcod,pspxc,lmax,lloc,mmax,r2well
    5.99000000000000    4.00000000000000    0.00000000000000   rchrg,fchrg,qchrg
     nproj     2     2     1
     extension_switch     1
  pspatm : epsatm=    6.19401560
         --- l  ekb(1:nproj) -->
             0    5.257212    0.704241
             1   -5.135443   -1.451781
             2   -4.371486
 pspatm: atomic psp has been read  and splines computed
 
   1.31998181E+04                                ecore*ucvol(ha*bohr**3)
--------------------------------------------------------------------------------
 
_setup2: Arith. and geom. avg. npw (full set) are    6100.484    6100.445
 
================================================================================

--- !BeginCycle
iteration_state: {dtset: 1, }
solver: {iscf: 7, nstep: 100, nline: 4, wfoptalg: 0, }
tolerances: {toldfe: 1.00E-13, }
...
 
     iter   Etot(hartree)      deltaE(h)  residm     vres2
 ETOT  1  -357.46908807111    -3.575E+02 3.040E-01 1.300E+03
 ETOT  2  -357.96083627124    -4.917E-01 3.052E-02 1.127E+03
 ETOT  3  -358.59969344011    -6.389E-01 2.413E-03 7.114E+01
 ETOT  4  -358.63364534505    -3.395E-02 8.992E-05 1.052E-01
 ETOT  5  -358.63370470612    -5.936E-05 1.782E-06 3.170E-02
 ETOT  6  -358.63371987229    -1.517E-05 1.324E-07 6.237E-03
 ETOT  7  -358.63372227002    -2.398E-06 2.749E-08 6.684E-04
 ETOT  8  -358.63372250367    -2.336E-07 1.549E-09 5.779E-05
 ETOT  9  -358.63372252953    -2.585E-08 5.676E-11 2.993E-06
 ETOT 10  -358.63372253086    -1.331E-09 4.139E-12 9.122E-08
 ETOT 11  -358.63372253089    -3.638E-11 2.238E-13 1.463E-09
 ETOT 12  -358.63372253089    -1.251E-12 8.649E-15 7.493E-11
 ETOT 13  -358.63372253090    -1.876E-12 4.805E-16 6.516E-12
 ETOT 14  -358.63372253089     2.956E-12 3.260E-17 5.850E-13
 ETOT 15  -358.63372253090    -6.708E-12 2.853E-18 1.351E-14
 ETOT 16  -358.63372253090     2.274E-13 1.629E-19 6.069E-16
 ETOT 17  -358.63372253090     4.661E-12 1.471E-20 2.792E-17
 ETOT 18  -358.63372253090    -1.933E-12 8.362E-22 2.927E-18
 ETOT 19  -358.63372253090    -2.274E-13 7.817E-23 5.851E-20
 ETOT 20  -358.63372253090    -1.819E-12 4.207E-24 5.076E-21
 ETOT 21  -358.63372253090    -1.705E-13 3.476E-25 9.740E-22
 ETOT 22  -358.63372253090    -3.411E-13 1.903E-26 1.235E-22
 ETOT 23  -358.63372253090    -1.137E-13 2.062E-27 7.088E-23
 ETOT 24  -358.63372253090     1.705E-13 9.264E-29 3.935E-23
 ETOT 25  -358.63372253090    -5.684E-14 4.108E-29 3.735E-23
 ETOT 26  -358.63372253090     5.684E-14 4.108E-29 3.323E-23
 
 At SCF step   26, etot is converged : 
  for the second time, diff in etot=  5.684E-14 < toldfe=  1.000E-13
 
 Cartesian components of stress tensor (hartree/bohr^3)
  sigma(1 1)= -1.41459982E-04  sigma(3 2)=  0.00000000E+00
  sigma(2 2)= -1.41459982E-04  sigma(3 1)=  0.00000000E+00
  sigma(3 3)= -4.47933779E-04  sigma(2 1)=  0.00000000E+00
 

--- !ResultsGS
iteration_state: {dtset: 1, }
comment   : Summary of ground state results
lattice_vectors:
- [  9.5914335,   0.0000000,   0.0000000, ]
- [  0.0000000,   9.5914335,   0.0000000, ]
- [  0.0000000,   0.0000000,   9.5914335, ]
lattice_lengths: [   9.59143,    9.59143,    9.59143, ]
lattice_angles: [ 90.000,  90.000,  90.000, ] # degrees, (23, 13, 12)
lattice_volume:   8.8236964E+02
convergence: {deltae:  5.684E-14, res2:  3.323E-23, residm:  4.108E-29, diffor: null, }
etotal    :  -3.58633723E+02
entropy   :   0.00000000E+00
fermie    :   2.76615718E-01
cartesian_stress_tensor: # hartree/bohr^3
- [ -1.41459982E-04,   0.00000000E+00,   0.00000000E+00, ]
- [  0.00000000E+00,  -1.41459982E-04,   0.00000000E+00, ]
- [  0.00000000E+00,   0.00000000E+00,  -4.47933779E-04, ]
pressure_GPa:   7.1675E+00
xred      :
- [  0.0000E+00,   0.0000E+00,   0.0000E+00, Hf]
- [  5.0000E-01,   5.0000E-01,   0.0000E+00, Hf]
- [  0.0000E+00,   5.0000E-01,   5.0000E-01, Hf]
- [  5.0000E-01,   0.0000E+00,   5.0000E-01, Hf]
- [  2.5001E-01,   2.5001E-01,   2.0164E-01,  O]
- [  2.4999E-01,   2.4999E-01,   7.0164E-01,  O]
- [  7.4999E-01,   7.4999E-01,   2.0164E-01,  O]
- [  7.5001E-01,   7.5001E-01,   7.0164E-01,  O]
- [  2.4999E-01,   7.5001E-01,   2.9836E-01,  O]
- [  2.5001E-01,   7.4999E-01,   7.9836E-01,  O]
- [  7.5001E-01,   2.4999E-01,   2.9836E-01,  O]
- [  7.4999E-01,   2.5001E-01,   7.9836E-01,  O]
cartesian_forces: # hartree/bohr
- [  1.76465197E-23,  -1.76465197E-23,   1.12937726E-21, ]
- [  1.76465197E-23,  -1.76465197E-23,   1.12937726E-21, ]
- [  1.76465197E-23,  -1.76465197E-23,   1.12937726E-21, ]
- [  1.76465197E-23,  -1.76465197E-23,   1.12937726E-21, ]
- [  1.81799570E-06,   1.81799570E-06,  -1.11237927E-04, ]
- [  2.06570539E-06,   2.06570539E-06,  -1.16539384E-04, ]
- [ -1.81799570E-06,  -1.81799570E-06,  -1.11237927E-04, ]
- [ -2.06570539E-06,  -2.06570539E-06,  -1.16539384E-04, ]
- [  2.06570539E-06,  -2.06570539E-06,   1.16539384E-04, ]
- [  1.81799570E-06,  -1.81799570E-06,   1.11237927E-04, ]
- [ -2.06570539E-06,   2.06570539E-06,   1.16539384E-04, ]
- [ -1.81799570E-06,   1.81799570E-06,   1.11237927E-04, ]
force_length_stats: {min:   1.12965296E-21, max:   1.16575994E-04, mean:   7.59478762E-05, }
...

 Integrated electronic density in atomic spheres:
 ------------------------------------------------
 Atom  Sphere_radius  Integrated_density
    1        2.00000          8.30490491
    2        2.00000          8.30496352
    3        2.00000          8.30492913
    4        2.00000          8.30492913
    5        2.00000          6.36326364
    6        2.00000          6.36326310
    7        2.00000          6.36326364
    8        2.00000          6.36326310
    9        2.00000          6.36326310
   10        2.00000          6.36326364
   11        2.00000          6.36326310
   12        2.00000          6.36326364
================================================================================
 
 ----iterations are completed or convergence reached----
 
 Mean square residual over all n,k,spin=   30.237E-31; max=  41.082E-30
 reduced coordinates (array xred) for   12 atoms
       0.000000000000      0.000000000000      0.000000000000
       0.500000000000      0.500000000000      0.000000000000
       0.000000000000      0.500000000000      0.500000000000
       0.500000000000      0.000000000000      0.500000000000
       0.250006359290      0.250006359290      0.201636438930
       0.249986999550      0.249986999550      0.701638368780
       0.749993640710      0.749993640710      0.201636438930
       0.750013000450      0.750013000450      0.701638368780
       0.249986999550      0.750013000450      0.298361631220
       0.250006359290      0.749993640710      0.798363561070
       0.750013000450      0.249986999550      0.298361631220
       0.749993640710      0.250006359290      0.798363561070
 rms dE/dt=  5.1523E-04; max dE/dt=  1.1178E-03; dE/dt below (all hartree)
    1       0.000000000000      0.000000000000      0.000000000000
    2       0.000000000000      0.000000000000      0.000000000000
    3       0.000000000000      0.000000000000      0.000000000000
    4       0.000000000000      0.000000000000      0.000000000000
    5      -0.000017437185     -0.000017437185      0.001066931177
    6      -0.000019813076     -0.000019813076      0.001117779752
    7       0.000017437185      0.000017437185      0.001066931177
    8       0.000019813076      0.000019813076      0.001117779752
    9      -0.000019813076      0.000019813076     -0.001117779752
   10      -0.000017437185      0.000017437185     -0.001066931177
   11       0.000019813076     -0.000019813076     -0.001117779752
   12       0.000017437185     -0.000017437185     -0.001066931177
 
 cartesian coordinates (angstrom) at end:
    1      0.00000000000000     0.00000000000000     0.00000000000000
    2      2.53778400000000     2.53778400000000     0.00000000000000
    3      0.00000000000000     2.53778400000000     2.53778400000000
    4      2.53778400000000     0.00000000000000     2.53778400000000
    5      1.26892427700883     1.26892427700883     1.02341945706706
    6      1.26882601533199     1.26882601533199     3.56121325215197
    7      3.80664372299117     3.80664372299117     1.02341945706706
    8      3.80674198466800     3.80674198466800     3.56121325215197
    9      1.26882601533199     3.80674198466800     1.51435474784803
   10      1.26892427700883     3.80664372299117     4.05214854293294
   11      3.80674198466800     1.26882601533199     1.51435474784803
   12      3.80664372299117     1.26892427700883     4.05214854293294
 
 cartesian forces (hartree/bohr) at end:
    1      0.00000000000000    -0.00000000000000     0.00000000000000
    2      0.00000000000000    -0.00000000000000     0.00000000000000
    3      0.00000000000000    -0.00000000000000     0.00000000000000
    4      0.00000000000000    -0.00000000000000     0.00000000000000
    5      0.00000181799570     0.00000181799570    -0.00011123792686
    6      0.00000206570539     0.00000206570539    -0.00011653938412
    7     -0.00000181799570    -0.00000181799570    -0.00011123792686
    8     -0.00000206570539    -0.00000206570539    -0.00011653938412
    9      0.00000206570539    -0.00000206570539     0.00011653938412
   10      0.00000181799570    -0.00000181799570     0.00011123792686
   11     -0.00000206570539     0.00000206570539     0.00011653938412
   12     -0.00000181799570     0.00000181799570     0.00011123792686
 frms,max,avg= 5.3717832E-05 1.1653938E-04   0.000E+00  0.000E+00  0.000E+00 h/b
 
 cartesian forces (eV/Angstrom) at end:
    1      0.00000000000000    -0.00000000000000     0.00000000000000
    2      0.00000000000000    -0.00000000000000     0.00000000000000
    3      0.00000000000000    -0.00000000000000     0.00000000000000
    4      0.00000000000000    -0.00000000000000     0.00000000000000
    5      0.00009348508999     0.00009348508999    -0.00572008370416
    6      0.00010622283312     0.00010622283312    -0.00599269557449
    7     -0.00009348508999    -0.00009348508999    -0.00572008370416
    8     -0.00010622283312    -0.00010622283312    -0.00599269557449
    9      0.00010622283312    -0.00010622283312     0.00599269557449
   10      0.00009348508999    -0.00009348508999     0.00572008370416
   11     -0.00010622283312     0.00010622283312     0.00599269557449
   12     -0.00009348508999     0.00009348508999     0.00572008370416
 frms,max,avg= 2.7622817E-03 5.9926956E-03   0.000E+00  0.000E+00  0.000E+00 e/A
 length scales=  9.591433488838  9.591433488838  9.591433488838 bohr
              =  5.075568000000  5.075568000000  5.075568000000 angstroms
 Fermi (or HOMO) energy (hartree) =   0.27662   Average Vxc (hartree)=  -0.44601
 Eigenvalues (hartree) for nkpt=  36  k points:
 kpt#   1, nband= 48, wtk=  0.01563, kpt=  0.0000  0.0000  0.0000 (reduced coord)
  -1.94370   -1.94304   -1.94301   -1.94301   -0.80523   -0.80523   -0.80489   -0.79312
  -0.79312   -0.79281   -0.79281   -0.79148   -0.79148   -0.78862   -0.78699   -0.78699
  -0.39505   -0.33819   -0.32893   -0.32893   -0.31890   -0.31582   -0.31582   -0.29680
   0.06029    0.06029    0.07166    0.09588    0.10257    0.10257    0.16431    0.16431
   0.16650    0.16650    0.17274    0.17274    0.22369    0.22369    0.22845    0.22845
   0.24959    0.24959    0.25533    0.25533    0.25962    0.26628    0.26628    0.27519
 prteigrs : prtvol=0 or 1, do not print more k-points.
 

--- !EnergyTerms
iteration_state     : {dtset: 1, }
comment             : Components of total free energy in Hartree
kinetic             :  1.46190325044299E+02
hartree             :  5.59159977759180E+01
xc                  : -9.09036028270202E+01
Ewald energy        : -2.70166846762019E+02
psp_core            :  1.49595106529080E+01
local_psp           : -2.05517197810947E+02
non_local_psp       : -9.11190860403908E+00
total_energy        : -3.58633722530900E+02
total_energy_eV     : -9.75891988892905E+03
band_energy         : -3.10954236024288E+01
...

 
 Cartesian components of stress tensor (hartree/bohr^3)
  sigma(1 1)= -1.41459982E-04  sigma(3 2)=  0.00000000E+00
  sigma(2 2)= -1.41459982E-04  sigma(3 1)=  0.00000000E+00
  sigma(3 3)= -4.47933779E-04  sigma(2 1)=  0.00000000E+00
 
-Cartesian components of stress tensor (GPa)         [Pressure=  7.1675E+00 GPa]
- sigma(1 1)= -4.16189565E+00  sigma(3 2)=  0.00000000E+00
- sigma(2 2)= -4.16189565E+00  sigma(3 1)=  0.00000000E+00
- sigma(3 3)= -1.31786646E+01  sigma(2 1)=  0.00000000E+00
 
================================================================================
== DATASET  2 ==================================================================
-   mpi_nproc: 32, omp_nthreads: -1 (-1 if OMP is not activated)
-    --> not optimal distribution: autoparal keyword recommended in input file <--
 

--- !DatasetInfo
iteration_state: {dtset: 2, }
dimensions: {natom: 12, nkpt: 36, mband: 48, nsppol: 1, nspinor: 1, nspden: 1, mpw: 6126, }
cutoff_energies: {ecut:  25.0, pawecutdg:  30.0, }
electrons: {nelect:   9.60000000E+01, charge:   0.00000000E+00, occopt:   1.00000000E+00, tsmear:   1.00000000E-02, }
meta: {optdriver: 0, ionmov: 0, optcell: 0, iscf: -2, paral_kgb: 0, }
...

 mkfilename : getwfk/=0, take file _WFK from output of DATASET   1.
 
 mkfilename : getden/=0, take file _DEN from output of DATASET   1.
 
 Exchange-correlation functional for the present dataset will be:
  GGA: Perdew-Burke-Ernzerhof functional - ixc=11
 Citation for XC functional:
  J.P.Perdew, K.Burke, M.Ernzerhof, PRL 77, 3865 (1996)
 
 Real(R)+Recip(G) space primitive vectors, cartesian coordinates (Bohr,Bohr^-1):
 R(1)=  9.5914335  0.0000000  0.0000000  G(1)=  0.1042597  0.0000000  0.0000000
 R(2)=  0.0000000  9.5914335  0.0000000  G(2)=  0.0000000  0.1042597  0.0000000
 R(3)=  0.0000000  0.0000000  9.5914335  G(3)=  0.0000000  0.0000000  0.1042597
 Unit cell volume ucvol=  8.8236964E+02 bohr^3
 Angles (23,13,12)=  9.00000000E+01  9.00000000E+01  9.00000000E+01 degrees
 
 getcut: wavevector=  0.0000  0.0000  0.0000  ngfft=  48  48  48
         ecut(hartree)=     27.563   => boxcut(ratio)=   2.11755
--------------------------------------------------------------------------------
 
-inwffil : will read wavefunctions from disk file o_DS1_WFK
  initberry: for direction 1, nkstr =   4, nstr =     16
  initberry: for direction 2, nkstr =   4, nstr =     16
  initberry: for direction 3, nkstr =   4, nstr =     16
 
================================================================================
 Non-SCF case, kpt    1 (  0.00000  0.00000  0.00000), residuals and eigenvalues=
  2.97E-30  9.46E-30  6.03E-30  7.35E-30  3.27E-30  4.03E-30  3.68E-30  2.54E-30
  2.59E-30  1.97E-30  3.88E-30  2.65E-30  3.28E-30  2.84E-30  2.83E-30  3.00E-30
  1.37E-29  8.66E-30  1.02E-29  1.06E-29  9.51E-30  1.00E-29  9.12E-30  1.01E-29
  1.25E-29  1.29E-29  2.29E-29  9.39E-30  7.87E-30  8.15E-30  1.08E-29  1.07E-29
  6.95E-30  9.66E-30  9.54E-30  9.34E-30  9.03E-30  9.53E-30  7.80E-30  8.16E-30
  1.01E-29  1.02E-29  1.06E-29  7.91E-30  1.11E-29  1.01E-29  1.04E-29  1.22E-29
 -1.9437E+00 -1.9430E+00 -1.9430E+00 -1.9430E+00 -8.0523E-01 -8.0523E-01
 -8.0489E-01 -7.9312E-01 -7.9312E-01 -7.9281E-01 -7.9281E-01 -7.9148E-01
 -7.9148E-01 -7.8862E-01 -7.8699E-01 -7.8699E-01 -3.9505E-01 -3.3819E-01
 -3.2893E-01 -3.2893E-01 -3.1890E-01 -3.1582E-01 -3.1582E-01 -2.9680E-01
  6.0293E-02  6.0294E-02  7.1663E-02  9.5878E-02  1.0257E-01  1.0257E-01
  1.6431E-01  1.6431E-01  1.6650E-01  1.6650E-01  1.7274E-01  1.7274E-01
  2.2369E-01  2.2369E-01  2.2845E-01  2.2845E-01  2.4959E-01  2.4959E-01
  2.5533E-01  2.5533E-01  2.5962E-01  2.6628E-01  2.6628E-01  2.7519E-01
 prteigrs : prtvol=0 or 1, do not print more k-points.
 
 
 
 Computing the polarization (Berry phase) for reciprocal vector:
  0.25000  0.00000  0.00000 (in reduced coordinates)
  0.02606  0.00000  0.00000 (in cartesian coordinates - atomic units)
 Number of strings:    16
 Number of k points in string:    4
 
 Computing the ddk (Berry phase) for reciprocal vector:
  0.25000  0.00000  0.00000 (in reduced coordinates)
  0.02606  0.00000  0.00000 (in cartesian coordinates - atomic units)
 Mean square residual over all n,k,spin=   0.0000E+00; max=  0.0000E+00
 
 Computing the polarization (Berry phase) for reciprocal vector:
  0.00000  0.25000  0.00000 (in reduced coordinates)
  0.00000  0.02606  0.00000 (in cartesian coordinates - atomic units)
 Number of strings:    16
 Number of k points in string:    4
 
 Computing the ddk (Berry phase) for reciprocal vector:
  0.00000  0.25000  0.00000 (in reduced coordinates)
  0.00000  0.02606  0.00000 (in cartesian coordinates - atomic units)
 Mean square residual over all n,k,spin=   0.0000E+00; max=  0.0000E+00
 
 Computing the polarization (Berry phase) for reciprocal vector:
  0.00000  0.00000  0.25000 (in reduced coordinates)
  0.00000  0.00000  0.02606 (in cartesian coordinates - atomic units)
 Number of strings:    16
 Number of k points in string:    4
 
 Computing the ddk (Berry phase) for reciprocal vector:
  0.00000  0.00000  0.25000 (in reduced coordinates)
  0.00000  0.00000  0.02606 (in cartesian coordinates - atomic units)
 Mean square residual over all n,k,spin=   0.0000E+00; max=  0.0000E+00
 
 Polarization in cartesian coordinates (a.u.):
 (the sum of the electronic and ionic Berry phase has been folded into [-1, 1])
     Electronic berry phase:        0.000000000E+00   0.000000000E+00   0.000000000E+00
     Ionic:                         0.000000000E+00   0.000000000E+00   0.000000000E+00  
     Total:                         0.000000000E+00   0.000000000E+00   0.000000000E+00
 
 Polarization in cartesian coordinates (C/m^2):
 (the sum of the electronic and ionic Berry phase has been folded into [-1, 1])
     Electronic berry phase:        0.000000000E+00   0.000000000E+00   0.000000000E+00
     Ionic:                         0.000000000E+00   0.000000000E+00   0.000000000E+00  
     Total:                         0.000000000E+00   0.000000000E+00   0.000000000E+00

--- !ResultsGS
iteration_state: {dtset: 2, }
comment   : Summary of ground state results
lattice_vectors:
- [  9.5914335,   0.0000000,   0.0000000, ]
- [  0.0000000,   9.5914335,   0.0000000, ]
- [  0.0000000,   0.0000000,   9.5914335, ]
lattice_lengths: [   9.59143,    9.59143,    9.59143, ]
lattice_angles: [ 90.000,  90.000,  90.000, ] # degrees, (23, 13, 12)
lattice_volume:   8.8236964E+02
convergence: {deltae:  0.000E+00, res2:  0.000E+00, residm:  3.940E-29, diffor:  0.000E+00, }
etotal    :  -3.58633723E+02
entropy   :   0.00000000E+00
fermie    :   2.76615718E-01
cartesian_stress_tensor: null
pressure_GPa: null
xred      :
- [  0.0000E+00,   0.0000E+00,   0.0000E+00, Hf]
- [  5.0000E-01,   5.0000E-01,   0.0000E+00, Hf]
- [  0.0000E+00,   5.0000E-01,   5.0000E-01, Hf]
- [  5.0000E-01,   0.0000E+00,   5.0000E-01, Hf]
- [  2.5001E-01,   2.5001E-01,   2.0164E-01,  O]
- [  2.4999E-01,   2.4999E-01,   7.0164E-01,  O]
- [  7.4999E-01,   7.4999E-01,   2.0164E-01,  O]
- [  7.5001E-01,   7.5001E-01,   7.0164E-01,  O]
- [  2.4999E-01,   7.5001E-01,   2.9836E-01,  O]
- [  2.5001E-01,   7.4999E-01,   7.9836E-01,  O]
- [  7.5001E-01,   2.4999E-01,   2.9836E-01,  O]
- [  7.4999E-01,   2.5001E-01,   7.9836E-01,  O]
cartesian_forces: null
force_length_stats: {min: null, max: null, mean: null, }
...

 Integrated electronic density in atomic spheres:
 ------------------------------------------------
 Atom  Sphere_radius  Integrated_density
    1        2.00000          8.30490491
    2        2.00000          8.30496352
    3        2.00000          8.30492913
    4        2.00000          8.30492913
    5        2.00000          6.36326364
    6        2.00000          6.36326310
    7        2.00000          6.36326364
    8        2.00000          6.36326310
    9        2.00000          6.36326310
   10        2.00000          6.36326364
   11        2.00000          6.36326310
   12        2.00000          6.36326364
================================================================================
 
 ----iterations are completed or convergence reached----
 
 Mean square residual over all n,k,spin=   89.817E-31; max=  39.397E-30
 reduced coordinates (array xred) for   12 atoms
       0.000000000000      0.000000000000      0.000000000000
       0.500000000000      0.500000000000      0.000000000000
       0.000000000000      0.500000000000      0.500000000000
       0.500000000000      0.000000000000      0.500000000000
       0.250006359290      0.250006359290      0.201636438930
       0.249986999550      0.249986999550      0.701638368780
       0.749993640710      0.749993640710      0.201636438930
       0.750013000450      0.750013000450      0.701638368780
       0.249986999550      0.750013000450      0.298361631220
       0.250006359290      0.749993640710      0.798363561070
       0.750013000450      0.249986999550      0.298361631220
       0.749993640710      0.250006359290      0.798363561070
 
 cartesian coordinates (angstrom) at end:
    1      0.00000000000000     0.00000000000000     0.00000000000000
    2      2.53778400000000     2.53778400000000     0.00000000000000
    3      0.00000000000000     2.53778400000000     2.53778400000000
    4      2.53778400000000     0.00000000000000     2.53778400000000
    5      1.26892427700883     1.26892427700883     1.02341945706706
    6      1.26882601533199     1.26882601533199     3.56121325215197
    7      3.80664372299117     3.80664372299117     1.02341945706706
    8      3.80674198466800     3.80674198466800     3.56121325215197
    9      1.26882601533199     3.80674198466800     1.51435474784803
   10      1.26892427700883     3.80664372299117     4.05214854293294
   11      3.80674198466800     1.26882601533199     1.51435474784803
   12      3.80664372299117     1.26892427700883     4.05214854293294
 length scales=  9.591433488838  9.591433488838  9.591433488838 bohr
              =  5.075568000000  5.075568000000  5.075568000000 angstroms
 Eigenvalues (hartree) for nkpt=  36  k points:
 kpt#   1, nband= 48, wtk=  0.01563, kpt=  0.0000  0.0000  0.0000 (reduced coord)
  -1.94370   -1.94304   -1.94301   -1.94301   -0.80523   -0.80523   -0.80489   -0.79312
  -0.79312   -0.79281   -0.79281   -0.79148   -0.79148   -0.78862   -0.78699   -0.78699
  -0.39505   -0.33819   -0.32893   -0.32893   -0.31890   -0.31582   -0.31582   -0.29680
   0.06029    0.06029    0.07166    0.09588    0.10257    0.10257    0.16431    0.16431
   0.16650    0.16650    0.17274    0.17274    0.22369    0.22369    0.22845    0.22845
   0.24959    0.24959    0.25533    0.25533    0.25962    0.26628    0.26628    0.27519
 prteigrs : prtvol=0 or 1, do not print more k-points.
 
 
================================================================================
== DATASET  3 ==================================================================
-   mpi_nproc: 32, omp_nthreads: -1 (-1 if OMP is not activated)
 

--- !DatasetInfo
iteration_state: {dtset: 3, }
dimensions: {natom: 12, nkpt: 36, mband: 48, nsppol: 1, nspinor: 1, nspden: 1, mpw: 6126, }
cutoff_energies: {ecut:  25.0, pawecutdg:  30.0, }
electrons: {nelect:   9.60000000E+01, charge:   0.00000000E+00, occopt:   1.00000000E+00, tsmear:   1.00000000E-02, }
meta: {optdriver: 1, rfelfd: 3, rfphon: 1, rfstrs: 3, }
...

 mkfilename : getwfk/=0, take file _WFK from output of DATASET   2.
 
 mkfilename : getddk/=0, take file _1WF from output of DATASET   2.
 
 Exchange-correlation functional for the present dataset will be:
  GGA: Perdew-Burke-Ernzerhof functional - ixc=11
 Citation for XC functional:
  J.P.Perdew, K.Burke, M.Ernzerhof, PRL 77, 3865 (1996)
 
 Real(R)+Recip(G) space primitive vectors, cartesian coordinates (Bohr,Bohr^-1):
 R(1)=  9.5914335  0.0000000  0.0000000  G(1)=  0.1042597  0.0000000  0.0000000
 R(2)=  0.0000000  9.5914335  0.0000000  G(2)=  0.0000000  0.1042597  0.0000000
 R(3)=  0.0000000  0.0000000  9.5914335  G(3)=  0.0000000  0.0000000  0.1042597
 Unit cell volume ucvol=  8.8236964E+02 bohr^3
 Angles (23,13,12)=  9.00000000E+01  9.00000000E+01  9.00000000E+01 degrees
 
 getcut: wavevector=  0.0000  0.0000  0.0000  ngfft=  48  48  48
         ecut(hartree)=     27.563   => boxcut(ratio)=   2.11755
--------------------------------------------------------------------------------
 
-inwffil : will read wavefunctions from disk file o_DS2_WFK
 symkchk : k-point set has full space-group symmetry.
 
 ==>  initialize data related to q vector <== 
 
 The list of irreducible perturbations for this q vector is:
    1)    idir= 1    ipert=   1
    2)    idir= 3    ipert=   1
    3)    idir= 1    ipert=   2
    4)    idir= 3    ipert=   2
    5)    idir= 1    ipert=   3
    6)    idir= 2    ipert=   3
    7)    idir= 3    ipert=   3
    8)    idir= 1    ipert=   5
    9)    idir= 3    ipert=   5
   10)    idir= 1    ipert=   6
   11)    idir= 3    ipert=   6
   12)    idir= 1    ipert=  14
   13)    idir= 3    ipert=  14
   14)    idir= 1    ipert=  15
   15)    idir= 2    ipert=  15
   16)    idir= 3    ipert=  15
   17)    idir= 1    ipert=  16
   18)    idir= 2    ipert=  16
   19)    idir= 3    ipert=  16
 
================================================================================
 
 The perturbation idir=   2  ipert=   1 is
 symmetric of a previously calculated perturbation.
 So, its SCF calculation is not needed.
 
 
 The perturbation idir=   2  ipert=   2 is
 symmetric of a previously calculated perturbation.
 So, its SCF calculation is not needed.
 
 
 The perturbation idir=   1  ipert=   4 is
 symmetric of a previously calculated perturbation.
 So, its SCF calculation is not needed.
 
 
 The perturbation idir=   2  ipert=   4 is
 symmetric of a previously calculated perturbation.
 So, its SCF calculation is not needed.
 
 
 The perturbation idir=   3  ipert=   4 is
 symmetric of a previously calculated perturbation.
 So, its SCF calculation is not needed.
 
 
 The perturbation idir=   2  ipert=   5 is
 symmetric of a previously calculated perturbation.
 So, its SCF calculation is not needed.
 
 
 The perturbation idir=   2  ipert=   6 is
 symmetric of a previously calculated perturbation.
 So, its SCF calculation is not needed.
 
 
 The perturbation idir=   1  ipert=   7 is
 symmetric of a previously calculated perturbation.
 So, its SCF calculation is not needed.
 
 
 The perturbation idir=   2  ipert=   7 is
 symmetric of a previously calculated perturbation.
 So, its SCF calculation is not needed.
 
 
 The perturbation idir=   3  ipert=   7 is
 symmetric of a previously calculated perturbation.
 So, its SCF calculation is not needed.
 
 
 The perturbation idir=   1  ipert=   8 is
 symmetric of a previously calculated perturbation.
 So, its SCF calculation is not needed.
 
 
 The perturbation idir=   2  ipert=   8 is
 symmetric of a previously calculated perturbation.
 So, its SCF calculation is not needed.
 
 
 The perturbation idir=   3  ipert=   8 is
 symmetric of a previously calculated perturbation.
 So, its SCF calculation is not needed.
 
 
 The perturbation idir=   1  ipert=   9 is
 symmetric of a previously calculated perturbation.
 So, its SCF calculation is not needed.
 
 
 The perturbation idir=   2  ipert=   9 is
 symmetric of a previously calculated perturbation.
 So, its SCF calculation is not needed.
 
 
 The perturbation idir=   3  ipert=   9 is
 symmetric of a previously calculated perturbation.
 So, its SCF calculation is not needed.
 
 
 The perturbation idir=   1  ipert=  10 is
 symmetric of a previously calculated perturbation.
 So, its SCF calculation is not needed.
 
 
 The perturbation idir=   2  ipert=  10 is
 symmetric of a previously calculated perturbation.
 So, its SCF calculation is not needed.
 
 
 The perturbation idir=   3  ipert=  10 is
 symmetric of a previously calculated perturbation.
 So, its SCF calculation is not needed.
 
 
 The perturbation idir=   1  ipert=  11 is
 symmetric of a previously calculated perturbation.
 So, its SCF calculation is not needed.
 
 
 The perturbation idir=   2  ipert=  11 is
 symmetric of a previously calculated perturbation.
 So, its SCF calculation is not needed.
 
 
 The perturbation idir=   3  ipert=  11 is
 symmetric of a previously calculated perturbation.
 So, its SCF calculation is not needed.
 
 
 The perturbation idir=   1  ipert=  12 is
 symmetric of a previously calculated perturbation.
 So, its SCF calculation is not needed.
 
 
 The perturbation idir=   2  ipert=  12 is
 symmetric of a previously calculated perturbation.
 So, its SCF calculation is not needed.
 
 
 The perturbation idir=   3  ipert=  12 is
 symmetric of a previously calculated perturbation.
 So, its SCF calculation is not needed.
 
 
 The perturbation idir=   2  ipert=  14 is
 symmetric of a previously calculated perturbation.
 So, its SCF calculation is not needed.
 
 
--------------------------------------------------------------------------------
 Perturbation wavevector (in red.coord.)   0.000000  0.000000  0.000000
 Perturbation : displacement of atom   1   along direction   1
 Found     2 symmetries that leave the perturbation invariant.
 symkpt : the number of k-points, thanks to the symmetries,
 is reduced to    30 .
 
--------------------------------------------------------------------------------
 
-inwffil : will read wavefunctions from disk file o_DS2_WFK
--------------------------------------------------------------------------------
 
 Initialisation of the first-order wave-functions :
  ireadwf=   0

--- !BeginCycle
iteration_state: {dtset: 3, }
solver: {iscf: 7, nstep: 100, nline: 4, wfoptalg: 0, }
tolerances: {tolvrs: 1.00E-13, }
...
 
     iter   2DEtotal(Ha)        deltaE(Ha) residm    vres2
-ETOT  1   22.518001529850     -3.375E+03 1.175E+01 1.172E+04
 ETOT  2   18.649309608640     -3.869E+00 2.085E-02 4.634E+02
 ETOT  3   18.855883078229      2.066E-01 2.330E-03 1.426E+03
 ETOT  4   18.188095932012     -6.678E-01 6.161E-04 2.555E+01
 ETOT  5   18.181355706616     -6.740E-03 6.206E-05 4.994E-01
 ETOT  6   18.181408962089      5.326E-05 2.711E-06 7.489E-01
 ETOT  7   18.181006321804     -4.026E-04 6.431E-07 1.089E-02
 ETOT  8   18.180997312439     -9.009E-06 3.027E-08 2.301E-04
 ETOT  9   18.180997137012     -1.754E-07 1.904E-09 5.060E-05
 ETOT 10   18.180997110950     -2.606E-08 1.813E-11 3.402E-06
 ETOT 11   18.180997109065     -1.884E-09 2.672E-12 4.258E-08
 ETOT 12   18.180997109039     -2.592E-11 5.989E-14 1.716E-09
 ETOT 13   18.180997109018     -2.092E-11 4.164E-15 5.423E-11
 ETOT 14   18.180997109017     -1.364E-12 1.506E-16 7.860E-12
 ETOT 15   18.180997109031      1.364E-11 6.853E-18 2.308E-13
 ETOT 16   18.180997109028     -2.274E-12 7.094E-19 2.752E-14
 
 At SCF step   16       vres2   =  2.75E-14 < tolvrs=  1.00E-13 =>converged.
-open ddk wf file :o_DS2_1WF37
-open ddk wf file :o_DS2_1WF38
-open ddk wf file :o_DS2_1WF39
================================================================================
 
 ----iterations are completed or convergence reached----
 
 Mean square residual over all n,k,spin=   32.777E-21; max=  70.939E-20
 
 Thirteen components of 2nd-order total energy (hartree) are
 1,2,3: 0th-order hamiltonian combined with 1st-order wavefunctions
     kin0=   3.44936219E+03 eigvalue=   7.12095514E+02  local=  -2.54536534E+03
 4,5,6: 1st-order hamiltonian combined with 1st and 0th-order wfs
 loc psp =  -4.80993360E+03  Hartree=   1.21055989E+03     xc=  -2.34958349E+02
 note that "loc psp" includes a xc core correction that could be resolved
 7,8,9: eventually, occupation + non-local contributions
    edocc=   0.00000000E+00     enl0=   7.87241127E+02   enl1=  -1.94793646E+03
 1-9 gives the relaxation energy (to be shifted if some occ is /=2.0)
   erelax=  -3.37893503E+03
 10,11,12 Non-relaxation  contributions : frozen-wavefunctions and Ewald
 fr.local=   1.84549575E+03 fr.nonlo=   9.85085445E+02  Ewald=   4.60764640E+02
 13,14 Frozen wf xc core corrections (1) and (2)
 frxc 1  =  -4.09468892E+02  frxc 2 =   5.15239082E+02
 Resulting in :
 2DEtotal=    0.1818099711E+02 Ha. Also 2DEtotal=    0.494730091291E+03 eV
    (2DErelax=   -3.3789350323E+03 Ha. 2DEnonrelax=    3.3971160294E+03 Ha)
    (  non-var. 2DEtotal :    1.8180997095E+01 Ha)
 
 
--------------------------------------------------------------------------------
 Perturbation wavevector (in red.coord.)   0.000000  0.000000  0.000000
 Perturbation : displacement of atom   1   along direction   3
 Found     4 symmetries that leave the perturbation invariant.
 symkpt : the number of k-points, thanks to the symmetries,
 is reduced to    21 .
 
--------------------------------------------------------------------------------
 
-inwffil : will read wavefunctions from disk file o_DS2_WFK
--------------------------------------------------------------------------------
 
 Initialisation of the first-order wave-functions :
  ireadwf=   0

--- !BeginCycle
iteration_state: {dtset: 3, }
solver: {iscf: 7, nstep: 100, nline: 4, wfoptalg: 0, }
tolerances: {tolvrs: 1.00E-13, }
...
 
     iter   2DEtotal(Ha)        deltaE(Ha) residm    vres2
-ETOT  1   20.719883293748     -3.392E+03 1.250E+01 7.740E+03
 ETOT  2   17.374534421598     -3.345E+00 1.595E-02 2.989E+02
 ETOT  3   17.549576808716      1.750E-01 1.528E-03 8.718E+02
 ETOT  4   17.100023803408     -4.496E-01 5.699E-04 1.040E+01
 ETOT  5   17.096794293024     -3.230E-03 3.337E-05 1.810E-01
 ETOT  6   17.096801774776      7.482E-06 8.651E-07 2.418E-01
 ETOT  7   17.096675522662     -1.263E-04 2.358E-07 1.351E-02
 ETOT  8   17.096664673044     -1.085E-05 1.328E-08 1.619E-04
 ETOT  9   17.096664565312     -1.077E-07 1.386E-09 4.863E-05
 ETOT 10   17.096664547289     -1.802E-08 2.533E-11 3.367E-06
 ETOT 11   17.096664545806     -1.483E-09 2.645E-12 8.632E-08
 ETOT 12   17.096664545762     -4.366E-11 1.612E-13 1.757E-09
 ETOT 13   17.096664545758     -4.093E-12 4.637E-15 2.678E-10
 ETOT 14   17.096664545742     -1.637E-11 1.795E-16 2.920E-11
 ETOT 15   17.096664545758      1.683E-11 2.014E-17 1.134E-13
 ETOT 16   17.096664545752     -6.366E-12 9.157E-19 2.726E-14
 
 At SCF step   16       vres2   =  2.73E-14 < tolvrs=  1.00E-13 =>converged.
-open ddk wf file :o_DS2_1WF37
-open ddk wf file :o_DS2_1WF38
-open ddk wf file :o_DS2_1WF39
================================================================================
 
 ----iterations are completed or convergence reached----
 
 Mean square residual over all n,k,spin=   30.244E-21; max=  91.575E-20
 
 Thirteen components of 2nd-order total energy (hartree) are
 1,2,3: 0th-order hamiltonian combined with 1st-order wavefunctions
     kin0=   3.45903550E+03 eigvalue=   7.27688346E+02  local=  -2.57587037E+03
 4,5,6: 1st-order hamiltonian combined with 1st and 0th-order wfs
 loc psp =  -4.82883561E+03  Hartree=   1.22230401E+03     xc=  -2.39337212E+02
 note that "loc psp" includes a xc core correction that could be resolved
 7,8,9: eventually, occupation + non-local contributions
    edocc=   0.00000000E+00     enl0=   8.01733400E+02   enl1=  -1.96227174E+03
 1-9 gives the relaxation energy (to be shifted if some occ is /=2.0)
   erelax=  -3.39555368E+03
 10,11,12 Non-relaxation  contributions : frozen-wavefunctions and Ewald
 fr.local=   1.91978190E+03 fr.nonlo=   9.87645308E+02  Ewald=   3.99118107E+02
 13,14 Frozen wf xc core corrections (1) and (2)
 frxc 1  =  -4.09254843E+02  frxc 2 =   5.15359874E+02
 Resulting in :
 2DEtotal=    0.1709666455E+02 Ha. Also 2DEtotal=    0.465223901680E+03 eV
    (2DErelax=   -3.3955536770E+03 Ha. 2DEnonrelax=    3.4126503415E+03 Ha)
    (  non-var. 2DEtotal :    1.7096664519E+01 Ha)
 
 
--------------------------------------------------------------------------------
 Perturbation wavevector (in red.coord.)   0.000000  0.000000  0.000000
 Perturbation : displacement of atom   2   along direction   1
 Found     2 symmetries that leave the perturbation invariant.
 symkpt : the number of k-points, thanks to the symmetries,
 is reduced to    30 .
 
--------------------------------------------------------------------------------
 
-inwffil : will read wavefunctions from disk file o_DS2_WFK
--------------------------------------------------------------------------------
 
 Initialisation of the first-order wave-functions :
  ireadwf=   0

--- !BeginCycle
iteration_state: {dtset: 3, }
solver: {iscf: 7, nstep: 100, nline: 4, wfoptalg: 0, }
tolerances: {tolvrs: 1.00E-13, }
...
 
     iter   2DEtotal(Ha)        deltaE(Ha) residm    vres2
-ETOT  1   22.522723266053     -3.375E+03 1.175E+01 1.172E+04
 ETOT  2   18.653874479304     -3.869E+00 2.085E-02 4.636E+02
 ETOT  3   18.860367212572      2.065E-01 2.332E-03 1.426E+03
 ETOT  4   18.192543992949     -6.678E-01 6.166E-04 2.555E+01
 ETOT  5   18.185803374158     -6.741E-03 6.206E-05 4.993E-01
 ETOT  6   18.185856695120      5.332E-05 2.712E-06 7.492E-01
 ETOT  7   18.185453974504     -4.027E-04 6.432E-07 1.090E-02
 ETOT  8   18.185444957567     -9.017E-06 3.027E-08 2.303E-04
 ETOT  9   18.185444781960     -1.756E-07 1.906E-09 5.057E-05
 ETOT 10   18.185444755925     -2.603E-08 1.812E-11 3.403E-06
 ETOT 11   18.185444754019     -1.907E-09 2.671E-12 4.250E-08
 ETOT 12   18.185444753979     -4.002E-11 5.992E-14 1.716E-09
 ETOT 13   18.185444753984      5.002E-12 4.160E-15 5.447E-11
 ETOT 14   18.185444753982     -1.819E-12 1.507E-16 7.838E-12
 ETOT 15   18.185444753994      1.273E-11 6.838E-18 2.311E-13
 ETOT 16   18.185444753984     -1.000E-11 7.069E-19 2.760E-14
 
 At SCF step   16       vres2   =  2.76E-14 < tolvrs=  1.00E-13 =>converged.
-open ddk wf file :o_DS2_1WF37
-open ddk wf file :o_DS2_1WF38
-open ddk wf file :o_DS2_1WF39
================================================================================
 
 ----iterations are completed or convergence reached----
 
 Mean square residual over all n,k,spin=   32.686E-21; max=  70.685E-20
 
 Thirteen components of 2nd-order total energy (hartree) are
 1,2,3: 0th-order hamiltonian combined with 1st-order wavefunctions
     kin0=   3.44937040E+03 eigvalue=   7.12073065E+02  local=  -2.54534617E+03
 4,5,6: 1st-order hamiltonian combined with 1st and 0th-order wfs
 loc psp =  -4.80992179E+03  Hartree=   1.21055727E+03     xc=  -2.34956474E+02
 note that "loc psp" includes a xc core correction that could be resolved
 7,8,9: eventually, occupation + non-local contributions
    edocc=   0.00000000E+00     enl0=   7.87233365E+02   enl1=  -1.94794113E+03
 1-9 gives the relaxation energy (to be shifted if some occ is /=2.0)
   erelax=  -3.37893146E+03
 10,11,12 Non-relaxation  contributions : frozen-wavefunctions and Ewald
 fr.local=   1.84546864E+03 fr.nonlo=   9.85087100E+02  Ewald=   4.60791925E+02
 13,14 Frozen wf xc core corrections (1) and (2)
 frxc 1  =  -4.09468748E+02  frxc 2 =   5.15237988E+02
 Resulting in :
 2DEtotal=    0.1818544475E+02 Ha. Also 2DEtotal=    0.494851117866E+03 eV
    (2DErelax=   -3.3789314583E+03 Ha. 2DEnonrelax=    3.3971169030E+03 Ha)
    (  non-var. 2DEtotal :    1.8185444740E+01 Ha)
 
 
--------------------------------------------------------------------------------
 Perturbation wavevector (in red.coord.)   0.000000  0.000000  0.000000
 Perturbation : displacement of atom   2   along direction   3
 Found     4 symmetries that leave the perturbation invariant.
 symkpt : the number of k-points, thanks to the symmetries,
 is reduced to    21 .
 
--------------------------------------------------------------------------------
 
-inwffil : will read wavefunctions from disk file o_DS2_WFK
--------------------------------------------------------------------------------
 
 Initialisation of the first-order wave-functions :
  ireadwf=   0

--- !BeginCycle
iteration_state: {dtset: 3, }
solver: {iscf: 7, nstep: 100, nline: 4, wfoptalg: 0, }
tolerances: {tolvrs: 1.00E-13, }
...
 
     iter   2DEtotal(Ha)        deltaE(Ha) residm    vres2
-ETOT  1   20.723857576147     -3.392E+03 1.250E+01 7.740E+03
 ETOT  2   17.378219682868     -3.346E+00 1.596E-02 2.992E+02
 ETOT  3   17.553196569013      1.750E-01 1.529E-03 8.719E+02
 ETOT  4   17.103480964596     -4.497E-01 5.699E-04 1.040E+01
 ETOT  5   17.100250579436     -3.230E-03 3.334E-05 1.809E-01
 ETOT  6   17.100258109725      7.530E-06 8.651E-07 2.419E-01
 ETOT  7   17.100131823678     -1.263E-04 2.358E-07 1.352E-02
 ETOT  8   17.100120966824     -1.086E-05 1.328E-08 1.619E-04
 ETOT  9   17.100120859038     -1.078E-07 1.387E-09 4.860E-05
 ETOT 10   17.100120841016     -1.802E-08 2.533E-11 3.368E-06
 ETOT 11   17.100120839543     -1.473E-09 2.646E-12 8.619E-08
 ETOT 12   17.100120839478     -6.457E-11 1.612E-13 1.759E-09
 ETOT 13   17.100120839493      1.455E-11 4.633E-15 2.676E-10
 ETOT 14   17.100120839462     -3.047E-11 1.792E-16 2.913E-11
 ETOT 15   17.100120839496      3.320E-11 2.014E-17 1.130E-13
 ETOT 16   17.100120839466     -2.910E-11 9.174E-19 2.735E-14
 
 At SCF step   16       vres2   =  2.74E-14 < tolvrs=  1.00E-13 =>converged.
-open ddk wf file :o_DS2_1WF37
-open ddk wf file :o_DS2_1WF38
-open ddk wf file :o_DS2_1WF39
================================================================================
 
 ----iterations are completed or convergence reached----
 
 Mean square residual over all n,k,spin=   30.379E-21; max=  91.739E-20
 
 Thirteen components of 2nd-order total energy (hartree) are
 1,2,3: 0th-order hamiltonian combined with 1st-order wavefunctions
     kin0=   3.45906055E+03 eigvalue=   7.27675023E+02  local=  -2.57587908E+03
 4,5,6: 1st-order hamiltonian combined with 1st and 0th-order wfs
 loc psp =  -4.82884195E+03  Hartree=   1.22231018E+03     xc=  -2.39338513E+02
 note that "loc psp" includes a xc core correction that could be resolved
 7,8,9: eventually, occupation + non-local contributions
    edocc=   0.00000000E+00     enl0=   8.01733490E+02   enl1=  -1.96228134E+03
 1-9 gives the relaxation energy (to be shifted if some occ is /=2.0)
   erelax=  -3.39556165E+03
 10,11,12 Non-relaxation  contributions : frozen-wavefunctions and Ewald
 fr.local=   1.91984702E+03 fr.nonlo=   9.87646900E+02  Ewald=   3.99063538E+02
 13,14 Frozen wf xc core corrections (1) and (2)
 frxc 1  =  -4.09254613E+02  frxc 2 =   5.15358927E+02
 Resulting in :
 2DEtotal=    0.1710012084E+02 Ha. Also 2DEtotal=    0.465317952215E+03 eV
    (2DErelax=   -3.3955616460E+03 Ha. 2DEnonrelax=    3.4126617669E+03 Ha)
    (  non-var. 2DEtotal :    1.7100120812E+01 Ha)
 
 
--------------------------------------------------------------------------------
 Perturbation wavevector (in red.coord.)   0.000000  0.000000  0.000000
 Perturbation : displacement of atom   3   along direction   1
 Found     2 symmetries that leave the perturbation invariant.
 symkpt : the number of k-points, thanks to the symmetries,
 is reduced to    30 .
 
--------------------------------------------------------------------------------
 
-inwffil : will read wavefunctions from disk file o_DS2_WFK
--------------------------------------------------------------------------------
 
 Initialisation of the first-order wave-functions :
  ireadwf=   0

--- !BeginCycle
iteration_state: {dtset: 3, }
solver: {iscf: 7, nstep: 100, nline: 4, wfoptalg: 0, }
tolerances: {tolvrs: 1.00E-13, }
...
 
     iter   2DEtotal(Ha)        deltaE(Ha) residm    vres2
-ETOT  1   22.509722000137     -3.375E+03 1.175E+01 1.172E+04
 ETOT  2   18.647001676892     -3.863E+00 2.085E-02 4.582E+02
 ETOT  3   18.855301220418      2.083E-01 2.312E-03 1.425E+03
 ETOT  4   18.189398837575     -6.659E-01 6.133E-04 2.545E+01
 ETOT  5   18.182694266212     -6.705E-03 6.215E-05 4.999E-01
 ETOT  6   18.182747337508      5.307E-05 2.709E-06 7.471E-01
 ETOT  7   18.182344438339     -4.029E-04 6.436E-07 1.073E-02
 ETOT  8   18.182335540182     -8.898E-06 3.028E-08 2.287E-04
 ETOT  9   18.182335365980     -1.742E-07 1.890E-09 5.079E-05
 ETOT 10   18.182335339844     -2.614E-08 1.829E-11 3.370E-06
 ETOT 11   18.182335337961     -1.884E-09 2.693E-12 4.319E-08
 ETOT 12   18.182335337958     -3.183E-12 6.010E-14 1.702E-09
 ETOT 13   18.182335337930     -2.774E-11 4.181E-15 5.197E-11
 ETOT 14   18.182335337950      2.046E-11 1.485E-16 7.979E-12
 ETOT 15   18.182335337932     -1.864E-11 6.858E-18 2.292E-13
 ETOT 16   18.182335337930     -2.274E-12 7.238E-19 2.780E-14
 
 At SCF step   16       vres2   =  2.78E-14 < tolvrs=  1.00E-13 =>converged.
-open ddk wf file :o_DS2_1WF37
-open ddk wf file :o_DS2_1WF38
-open ddk wf file :o_DS2_1WF39
================================================================================
 
 ----iterations are completed or convergence reached----
 
 Mean square residual over all n,k,spin=   33.438E-21; max=  72.384E-20
 
 Thirteen components of 2nd-order total energy (hartree) are
 1,2,3: 0th-order hamiltonian combined with 1st-order wavefunctions
     kin0=   3.44937343E+03 eigvalue=   7.12092872E+02  local=  -2.54537237E+03
 4,5,6: 1st-order hamiltonian combined with 1st and 0th-order wfs
 loc psp =  -4.80993778E+03  Hartree=   1.21056277E+03     xc=  -2.34959298E+02
 note that "loc psp" includes a xc core correction that could be resolved
 7,8,9: eventually, occupation + non-local contributions
    edocc=   0.00000000E+00     enl0=   7.87241723E+02   enl1=  -1.94794048E+03
 1-9 gives the relaxation energy (to be shifted if some occ is /=2.0)
   erelax=  -3.37893913E+03
 10,11,12 Non-relaxation  contributions : frozen-wavefunctions and Ewald
 fr.local=   1.84553617E+03 fr.nonlo=   9.85085397E+02  Ewald=   4.60729958E+02
 13,14 Frozen wf xc core corrections (1) and (2)
 frxc 1  =  -4.09468805E+02  frxc 2 =   5.15238746E+02
 Resulting in :
 2DEtotal=    0.1818233534E+02 Ha. Also 2DEtotal=    0.494766506352E+03 eV
    (2DErelax=   -3.3789391313E+03 Ha. 2DEnonrelax=    3.3971214666E+03 Ha)
    (  non-var. 2DEtotal :    1.8182335324E+01 Ha)
 
 
--------------------------------------------------------------------------------
 Perturbation wavevector (in red.coord.)   0.000000  0.000000  0.000000
 Perturbation : displacement of atom   3   along direction   2
 Found     2 symmetries that leave the perturbation invariant.
 symkpt : the number of k-points, thanks to the symmetries,
 is reduced to    30 .
 
--------------------------------------------------------------------------------
 
-inwffil : will read wavefunctions from disk file o_DS2_WFK
--------------------------------------------------------------------------------
 
 Initialisation of the first-order wave-functions :
  ireadwf=   0

--- !BeginCycle
iteration_state: {dtset: 3, }
solver: {iscf: 7, nstep: 100, nline: 4, wfoptalg: 0, }
tolerances: {tolvrs: 1.00E-13, }
...
 
     iter   2DEtotal(Ha)        deltaE(Ha) residm    vres2
-ETOT  1   22.510807689664     -3.375E+03 1.175E+01 1.173E+04
 ETOT  2   18.647951810530     -3.863E+00 2.086E-02 4.581E+02
 ETOT  3   18.856253147578      2.083E-01 2.314E-03 1.425E+03
 ETOT  4   18.190347876061     -6.659E-01 6.138E-04 2.546E+01
 ETOT  5   18.183642113431     -6.706E-03 6.219E-05 5.001E-01
 ETOT  6   18.183695196413      5.308E-05 2.710E-06 7.473E-01
 ETOT  7   18.183292197736     -4.030E-04 6.438E-07 1.073E-02
 ETOT  8   18.183283299684     -8.898E-06 3.029E-08 2.287E-04
 ETOT  9   18.183283125469     -1.742E-07 1.891E-09 5.080E-05
 ETOT 10   18.183283099304     -2.616E-08 1.830E-11 3.369E-06
 ETOT 11   18.183283097439     -1.866E-09 2.695E-12 4.319E-08
 ETOT 12   18.183283097423     -1.546E-11 6.009E-14 1.701E-09
 ETOT 13   18.183283097422     -9.095E-13 4.183E-15 5.196E-11
 ETOT 14   18.183283097418     -4.547E-12 1.485E-16 7.979E-12
 ETOT 15   18.183283097414     -4.093E-12 6.865E-18 2.289E-13
 ETOT 16   18.183283097419      5.002E-12 7.253E-19 2.766E-14
 
 At SCF step   16       vres2   =  2.77E-14 < tolvrs=  1.00E-13 =>converged.
-open ddk wf file :o_DS2_1WF37
-open ddk wf file :o_DS2_1WF38
-open ddk wf file :o_DS2_1WF39
================================================================================
 
 ----iterations are completed or convergence reached----
 
 Mean square residual over all n,k,spin=   33.432E-21; max=  72.528E-20
 
 Thirteen components of 2nd-order total energy (hartree) are
 1,2,3: 0th-order hamiltonian combined with 1st-order wavefunctions
     kin0=   3.44935731E+03 eigvalue=   7.12081765E+02  local=  -2.54534330E+03
 4,5,6: 1st-order hamiltonian combined with 1st and 0th-order wfs
 loc psp =  -4.80991742E+03  Hartree=   1.21055386E+03     xc=  -2.34955862E+02
 note that "loc psp" includes a xc core correction that could be resolved
 7,8,9: eventually, occupation + non-local contributions
    edocc=   0.00000000E+00     enl0=   7.87233145E+02   enl1=  -1.94793641E+03
 1-9 gives the relaxation energy (to be shifted if some occ is /=2.0)
   erelax=  -3.37892691E+03
 10,11,12 Non-relaxation  contributions : frozen-wavefunctions and Ewald
 fr.local=   1.84543712E+03 fr.nonlo=   9.85086255E+02  Ewald=   4.60817270E+02
 13,14 Frozen wf xc core corrections (1) and (2)
 frxc 1  =  -4.09468872E+02  frxc 2 =   5.15238419E+02
 Resulting in :
 2DEtotal=    0.1818328310E+02 Ha. Also 2DEtotal=    0.494792296199E+03 eV
    (2DErelax=   -3.3789269144E+03 Ha. 2DEnonrelax=    3.3971101975E+03 Ha)
    (  non-var. 2DEtotal :    1.8183283083E+01 Ha)
 
 
--------------------------------------------------------------------------------
 Perturbation wavevector (in red.coord.)   0.000000  0.000000  0.000000
 Perturbation : displacement of atom   3   along direction   3
 Found     2 symmetries that leave the perturbation invariant.
 symkpt : the number of k-points, thanks to the symmetries,
 is reduced to    30 .
 
--------------------------------------------------------------------------------
 
-inwffil : will read wavefunctions from disk file o_DS2_WFK
--------------------------------------------------------------------------------
 
 Initialisation of the first-order wave-functions :
  ireadwf=   0

--- !BeginCycle
iteration_state: {dtset: 3, }
solver: {iscf: 7, nstep: 100, nline: 4, wfoptalg: 0, }
tolerances: {tolvrs: 1.00E-13, }
...
 
     iter   2DEtotal(Ha)        deltaE(Ha) residm    vres2
-ETOT  1   20.741432153756     -3.392E+03 1.247E+01 7.745E+03
 ETOT  2   17.372605834454     -3.369E+00 1.434E-02 2.954E+02
 ETOT  3   17.547050915043      1.744E-01 1.512E-03 8.659E+02
 ETOT  4   17.101313523855     -4.457E-01 5.670E-04 1.033E+01
 ETOT  5   17.098099450878     -3.214E-03 3.278E-05 1.833E-01
 ETOT  6   17.098105067689      5.617E-06 8.646E-07 2.374E-01
 ETOT  7   17.097981278572     -1.238E-04 2.373E-07 1.367E-02
 ETOT  8   17.097970331433     -1.095E-05 1.325E-08 1.592E-04
 ETOT  9   17.097970226010     -1.054E-07 1.402E-09 4.921E-05
 ETOT 10   17.097970208661     -1.735E-08 2.635E-11 4.407E-06
 ETOT 11   17.097970207101     -1.560E-09 3.992E-12 8.809E-07
 ETOT 12   17.097970206378     -7.230E-10 6.736E-13 2.964E-08
 ETOT 13   17.097970206351     -2.728E-11 1.877E-14 7.683E-10
 ETOT 14   17.097970206354      3.183E-12 1.881E-15 2.274E-10
 ETOT 15   17.097970206326     -2.728E-11 1.467E-16 1.343E-11
 ETOT 16   17.097970206336      9.550E-12 2.279E-17 1.638E-12
 ETOT 17   17.097970206336      4.547E-13 9.600E-19 2.099E-13
 ETOT 18   17.097970206354      1.728E-11 1.236E-19 2.173E-14
 
 At SCF step   18       vres2   =  2.17E-14 < tolvrs=  1.00E-13 =>converged.
-open ddk wf file :o_DS2_1WF37
-open ddk wf file :o_DS2_1WF38
-open ddk wf file :o_DS2_1WF39
================================================================================
 
 ----iterations are completed or convergence reached----
 
 Mean square residual over all n,k,spin=   99.043E-22; max=  12.363E-20
 
 Thirteen components of 2nd-order total energy (hartree) are
 1,2,3: 0th-order hamiltonian combined with 1st-order wavefunctions
     kin0=   3.45904567E+03 eigvalue=   7.27683931E+02  local=  -2.57587465E+03
 4,5,6: 1st-order hamiltonian combined with 1st and 0th-order wfs
 loc psp =  -4.82883767E+03  Hartree=   1.22230644E+03     xc=  -2.39337820E+02
 note that "loc psp" includes a xc core correction that could be resolved
 7,8,9: eventually, occupation + non-local contributions
    edocc=   0.00000000E+00     enl0=   8.01733252E+02   enl1=  -1.96227599E+03
 1-9 gives the relaxation energy (to be shifted if some occ is /=2.0)
   erelax=  -3.39555683E+03
 10,11,12 Non-relaxation  contributions : frozen-wavefunctions and Ewald
 fr.local=   1.91980410E+03 fr.nonlo=   9.87645846E+02  Ewald=   3.99100160E+02
 13,14 Frozen wf xc core corrections (1) and (2)
 frxc 1  =  -4.09254755E+02  frxc 2 =   5.15359450E+02
 Resulting in :
 2DEtotal=    0.1709797021E+02 Ha. Also 2DEtotal=    0.465259430512E+03 eV
    (2DErelax=   -3.3955568308E+03 Ha. 2DEnonrelax=    3.4126548010E+03 Ha)
    (  non-var. 2DEtotal :    1.7097970190E+01 Ha)
 
 
--------------------------------------------------------------------------------
 Perturbation wavevector (in red.coord.)   0.000000  0.000000  0.000000
 Perturbation : displacement of atom   5   along direction   1
 The set of symmetries contains only one element for this perturbation.
 symkpt : not enough symmetry to change the number of k points.
 
--------------------------------------------------------------------------------
 
-inwffil : will read wavefunctions from disk file o_DS2_WFK
--------------------------------------------------------------------------------
 
 Initialisation of the first-order wave-functions :
  ireadwf=   0

--- !BeginCycle
iteration_state: {dtset: 3, }
solver: {iscf: 7, nstep: 100, nline: 4, wfoptalg: 0, }
tolerances: {tolvrs: 1.00E-13, }
...
 
     iter   2DEtotal(Ha)        deltaE(Ha) residm    vres2
-ETOT  1   22.815213459133     -5.050E+03 1.624E+00 1.463E+04
 ETOT  2   12.965780746701     -9.849E+00 1.655E-01 1.233E+03
 ETOT  3   12.541836973898     -4.239E-01 1.495E-03 4.457E+01
 ETOT  4   12.523443035785     -1.839E-02 7.577E-05 3.889E+00
 ETOT  5   12.522707463277     -7.356E-04 4.600E-06 5.236E-01
 ETOT  6   12.522624911035     -8.255E-05 2.618E-07 2.250E-02
 ETOT  7   12.522623331557     -1.579E-06 4.669E-08 1.159E-02
 ETOT  8   12.522615151069     -8.180E-06 9.546E-09 2.940E-04
 ETOT  9   12.522615014348     -1.367E-07 2.839E-10 7.246E-05
 ETOT 10   12.522614964495     -4.985E-08 5.977E-11 7.601E-06
 ETOT 11   12.522614958382     -6.113E-09 4.622E-12 1.937E-07
 ETOT 12   12.522614958323     -5.912E-11 2.909E-13 3.551E-08
 ETOT 13   12.522614958312     -1.091E-11 6.511E-14 1.139E-08
 ETOT 14   12.522614958283     -2.910E-11 6.090E-15 1.270E-10
 ETOT 15   12.522614958291      8.185E-12 2.600E-16 4.433E-12
 ETOT 16   12.522614958298      6.366E-12 1.639E-17 5.343E-12
 ETOT 17   12.522614958298      0.000E+00 6.501E-18 3.002E-13
 ETOT 18   12.522614958285     -1.273E-11 3.946E-19 5.631E-14
 
 At SCF step   18       vres2   =  5.63E-14 < tolvrs=  1.00E-13 =>converged.
-open ddk wf file :o_DS2_1WF37
-open ddk wf file :o_DS2_1WF38
-open ddk wf file :o_DS2_1WF39
================================================================================
 
 ----iterations are completed or convergence reached----
 
 Mean square residual over all n,k,spin=   45.334E-21; max=  39.457E-20
 
 Thirteen components of 2nd-order total energy (hartree) are
 1,2,3: 0th-order hamiltonian combined with 1st-order wavefunctions
     kin0=   5.93900904E+03 eigvalue=  -2.07576532E+02  local=  -2.03175106E+03
 4,5,6: 1st-order hamiltonian combined with 1st and 0th-order wfs
 loc psp =  -3.26233139E+03  Hartree=   9.51605139E+02     xc=  -2.33419337E+02
 note that "loc psp" includes a xc core correction that could be resolved
 7,8,9: eventually, occupation + non-local contributions
    edocc=   0.00000000E+00     enl0=   6.42284741E+02   enl1=  -6.85797259E+03
 1-9 gives the relaxation energy (to be shifted if some occ is /=2.0)
   erelax=  -5.06015199E+03
 10,11,12 Non-relaxation  contributions : frozen-wavefunctions and Ewald
 fr.local=   1.44151497E+03 fr.nonlo=   3.43852241E+03  Ewald=   2.40357187E+02
 13,14 Frozen wf xc core corrections (1) and (2)
 frxc 1  =  -2.11743610E+02  frxc 2 =   1.64023647E+02
 Resulting in :
 2DEtotal=    0.1252261496E+02 Ha. Also 2DEtotal=    0.340757682561E+03 eV
    (2DErelax=   -5.0601519877E+03 Ha. 2DEnonrelax=    5.0726746026E+03 Ha)
    (  non-var. 2DEtotal :    1.2522614952E+01 Ha)
 
 
--------------------------------------------------------------------------------
 Perturbation wavevector (in red.coord.)   0.000000  0.000000  0.000000
 Perturbation : displacement of atom   5   along direction   3
 Found     2 symmetries that leave the perturbation invariant.
 symkpt : the number of k-points, thanks to the symmetries,
 is reduced to    24 .
 
--------------------------------------------------------------------------------
 
-inwffil : will read wavefunctions from disk file o_DS2_WFK
--------------------------------------------------------------------------------
 
 Initialisation of the first-order wave-functions :
  ireadwf=   0

--- !BeginCycle
iteration_state: {dtset: 3, }
solver: {iscf: 7, nstep: 100, nline: 4, wfoptalg: 0, }
tolerances: {tolvrs: 1.00E-13, }
...
 
     iter   2DEtotal(Ha)        deltaE(Ha) residm    vres2
-ETOT  1   22.560172764927     -5.083E+03 2.672E+00 1.266E+04
 ETOT  2   14.197382911660     -8.363E+00 1.371E-01 1.816E+03
 ETOT  3   13.925188211678     -2.722E-01 3.088E-03 4.714E+02
 ETOT  4   13.622531372259     -3.027E-01 1.279E-03 1.151E+02
 ETOT  5   13.558061648208     -6.447E-02 6.631E-05 3.425E+00
 ETOT  6   13.557636364832     -4.253E-04 4.102E-06 5.636E-01
 ETOT  7   13.557289353033     -3.470E-04 6.837E-07 1.859E-01
 ETOT  8   13.557179949990     -1.094E-04 5.614E-08 8.671E-03
 ETOT  9   13.557177805519     -2.144E-06 1.077E-08 2.838E-03
 ETOT 10   13.557175526971     -2.279E-06 2.581E-09 7.244E-05
 ETOT 11   13.557175489390     -3.758E-08 4.204E-11 1.003E-05
 ETOT 12   13.557175486063     -3.327E-09 1.143E-11 1.391E-06
 ETOT 13   13.557175485193     -8.704E-10 4.019E-12 9.064E-07
 ETOT 14   13.557175484791     -4.020E-10 2.325E-13 1.591E-08
 ETOT 15   13.557175484788     -2.728E-12 2.340E-14 5.058E-10
 ETOT 16   13.557175484808      2.001E-11 2.299E-15 4.232E-10
 ETOT 17   13.557175484806     -1.819E-12 3.072E-16 2.656E-11
 ETOT 18   13.557175484812      5.457E-12 1.995E-17 4.793E-13
 ETOT 19   13.557175484796     -1.546E-11 6.880E-19 1.037E-13
 ETOT 20   13.557175484792     -3.638E-12 6.387E-20 8.917E-15
 
 At SCF step   20       vres2   =  8.92E-15 < tolvrs=  1.00E-13 =>converged.
-open ddk wf file :o_DS2_1WF37
-open ddk wf file :o_DS2_1WF38
-open ddk wf file :o_DS2_1WF39
================================================================================
 
 ----iterations are completed or convergence reached----
 
 Mean square residual over all n,k,spin=   70.226E-22; max=  63.867E-21
 
 Thirteen components of 2nd-order total energy (hartree) are
 1,2,3: 0th-order hamiltonian combined with 1st-order wavefunctions
     kin0=   5.96346625E+03 eigvalue=  -2.09003140E+02  local=  -2.02858159E+03
 4,5,6: 1st-order hamiltonian combined with 1st and 0th-order wfs
 loc psp =  -3.25013601E+03  Hartree=   9.44633059E+02     xc=  -2.33672899E+02
 note that "loc psp" includes a xc core correction that could be resolved
 7,8,9: eventually, occupation + non-local contributions
    edocc=   0.00000000E+00     enl0=   6.54759911E+02   enl1=  -6.93306716E+03
 1-9 gives the relaxation energy (to be shifted if some occ is /=2.0)
   erelax=  -5.09160159E+03
 10,11,12 Non-relaxation  contributions : frozen-wavefunctions and Ewald
 fr.local=   1.44459568E+03 fr.nonlo=   3.48209689E+03  Ewald=   2.26775298E+02
 13,14 Frozen wf xc core corrections (1) and (2)
 frxc 1  =  -2.11210435E+02  frxc 2 =   1.62901321E+02
 Resulting in :
 2DEtotal=    0.1355717548E+02 Ha. Also 2DEtotal=    0.368909506174E+03 eV
    (2DErelax=   -5.0916015854E+03 Ha. 2DEnonrelax=    5.1051587608E+03 Ha)
    (  non-var. 2DEtotal :    1.3557175483E+01 Ha)
 
 
--------------------------------------------------------------------------------
 Perturbation wavevector (in red.coord.)   0.000000  0.000000  0.000000
 Perturbation : displacement of atom   6   along direction   1
 The set of symmetries contains only one element for this perturbation.
 symkpt : not enough symmetry to change the number of k points.
 
--------------------------------------------------------------------------------
 
-inwffil : will read wavefunctions from disk file o_DS2_WFK
--------------------------------------------------------------------------------
 
 Initialisation of the first-order wave-functions :
  ireadwf=   0

--- !BeginCycle
iteration_state: {dtset: 3, }
solver: {iscf: 7, nstep: 100, nline: 4, wfoptalg: 0, }
tolerances: {tolvrs: 1.00E-13, }
...
 
     iter   2DEtotal(Ha)        deltaE(Ha) residm    vres2
-ETOT  1   22.815381303714     -5.050E+03 1.586E+00 1.462E+04
 ETOT  2   12.965723287245     -9.850E+00 1.655E-01 1.234E+03
 ETOT  3   12.541645998782     -4.241E-01 1.495E-03 4.457E+01
 ETOT  4   12.523261532644     -1.838E-02 7.573E-05 3.892E+00
 ETOT  5   12.522524649357     -7.369E-04 4.597E-06 5.223E-01
 ETOT  6   12.522439664799     -8.498E-05 2.615E-07 1.798E-02
 ETOT  7   12.522437391905     -2.273E-06 3.189E-08 6.146E-03
 ETOT  8   12.522433559686     -3.832E-06 7.348E-09 5.233E-04
 ETOT  9   12.522433227170     -3.325E-07 2.655E-10 3.123E-05
 ETOT 10   12.522433215257     -1.191E-08 3.786E-11 1.168E-05
 ETOT 11   12.522433206109     -9.149E-09 6.532E-12 1.290E-07
 ETOT 12   12.522433206009     -1.000E-10 1.429E-13 5.778E-09
 ETOT 13   12.522433206007     -1.819E-12 1.230E-14 1.092E-09
 ETOT 14   12.522433206007      0.000E+00 2.339E-15 4.446E-10
 ETOT 15   12.522433206012      4.547E-12 2.816E-16 5.275E-12
 ETOT 16   12.522433206010     -1.819E-12 1.406E-17 4.971E-13
 ETOT 17   12.522433206010      0.000E+00 2.923E-18 5.586E-13
 ETOT 18   12.522433206008     -1.819E-12 3.805E-19 2.422E-14
 
[...]
 Phonon energies in Hartree :
  -1.698362E-04 -1.698362E-04  9.573712E-05  2.349928E-04  2.349928E-04
   4.290101E-04  4.290350E-04  4.699360E-04  4.699360E-04  4.726613E-04
   4.727567E-04  5.859297E-04  5.859297E-04  8.649146E-04  8.649146E-04
   1.060679E-03  1.238028E-03  1.238058E-03  1.325003E-03  1.686853E-03
   1.686853E-03  1.983018E-03  1.983018E-03  2.119491E-03  2.119491E-03
   2.715764E-03  2.715764E-03  2.731004E-03  2.731034E-03  2.840581E-03
   2.865567E-03  3.045877E-03  3.045877E-03  3.132971E-03  3.308482E-03
   3.308510E-03
 Phonon frequencies in cm-1    :
- -3.727475E+01 -3.727475E+01  2.101187E+01  5.157495E+01  5.157495E+01
-  9.415683E+01  9.416231E+01  1.031390E+02  1.031390E+02  1.037372E+02
-  1.037581E+02  1.285967E+02  1.285967E+02  1.898268E+02  1.898268E+02
-  2.327920E+02  2.717158E+02  2.717223E+02  2.908046E+02  3.702215E+02
-  3.702215E+02  4.352222E+02  4.352222E+02  4.651746E+02  4.651746E+02
-  5.960413E+02  5.960413E+02  5.993861E+02  5.993928E+02  6.234355E+02
-  6.289192E+02  6.684928E+02  6.684928E+02  6.876078E+02  7.261278E+02
-  7.261341E+02
 
== END DATASET(S) ==============================================================
================================================================================
  
 -outvars: echo values of variables after computation  --------
            acell      9.5914334888E+00  9.5914334888E+00  9.5914334888E+00 Bohr
              amu      1.78490000E+02  1.59994000E+01
         berryopt1          0
         berryopt2         -2
         berryopt3          0
          dilatmx      1.05000000E+00
             ecut      2.50000000E+01 Hartree
           ecutsm      5.00000000E-01 Hartree
           etotal1    -3.5863372253E+02
           etotal3     4.0613413606E+00
            fcart1     1.7646519734E-23 -1.7646519734E-23  1.1293772630E-21
                       1.7646519734E-23 -1.7646519734E-23  1.1293772630E-21
                       1.7646519734E-23 -1.7646519734E-23  1.1293772630E-21
                       1.7646519734E-23 -1.7646519734E-23  1.1293772630E-21
                       1.8179957042E-06  1.8179957042E-06 -1.1123792686E-04
                       2.0657053904E-06  2.0657053904E-06 -1.1653938412E-04
                      -1.8179957042E-06 -1.8179957042E-06 -1.1123792686E-04
                      -2.0657053904E-06 -2.0657053904E-06 -1.1653938412E-04
                       2.0657053904E-06 -2.0657053904E-06  1.1653938412E-04
                       1.8179957042E-06 -1.8179957042E-06  1.1123792686E-04
                      -2.0657053904E-06  2.0657053904E-06  1.1653938412E-04
                      -1.8179957042E-06  1.8179957042E-06  1.1123792686E-04
            fcart3     0.0000000000E+00  0.0000000000E+00  0.0000000000E+00
                       0.0000000000E+00  0.0000000000E+00  0.0000000000E+00
                       0.0000000000E+00  0.0000000000E+00  0.0000000000E+00
                       0.0000000000E+00  0.0000000000E+00  0.0000000000E+00
                       0.0000000000E+00  0.0000000000E+00  0.0000000000E+00
                       0.0000000000E+00  0.0000000000E+00  0.0000000000E+00
                       0.0000000000E+00  0.0000000000E+00  0.0000000000E+00
                       0.0000000000E+00  0.0000000000E+00  0.0000000000E+00
                       0.0000000000E+00  0.0000000000E+00  0.0000000000E+00
                       0.0000000000E+00  0.0000000000E+00  0.0000000000E+00
                       0.0000000000E+00  0.0000000000E+00  0.0000000000E+00
                       0.0000000000E+00  0.0000000000E+00  0.0000000000E+00
-          fftalg         512
           getddk1          0
           getddk2          0
           getddk3          2
           getden1          0
           getden2          1
           getden3          0
           getwfk1          0
           getwfk2          1
           getwfk3          2
             iscf1          7
             iscf2         -2
             iscf3          7
           istwfk1       2    0    3    0    0    0    0    6    0    7
                         0    0    0    0    0    0    0    0    0    0
                         0    0    0    0    0    0    4    0    5    0
                         0    0    0    8    0    9
           istwfk2       1    0    1    0    0    0    0    1    0    1
                         0    0    0    0    0    0    0    0    0    0
                         0    0    0    0    0    0    1    0    1    0
                         0    0    0    1    0    1
           istwfk3       1    0    1    0    0    0    0    1    0    1
                         0    0    0    0    0    0    0    0    0    0
                         0    0    0    0    0    0    1    0    1    0
                         0    0    0    1    0    1
              ixc          11
           jdtset        1    2    3
              kpt      0.00000000E+00  0.00000000E+00  0.00000000E+00
                       2.50000000E-01  0.00000000E+00  0.00000000E+00
                       5.00000000E-01  0.00000000E+00  0.00000000E+00
                       0.00000000E+00  2.50000000E-01  0.00000000E+00
                       2.50000000E-01  2.50000000E-01  0.00000000E+00
                       5.00000000E-01  2.50000000E-01  0.00000000E+00
                      -2.50000000E-01  2.50000000E-01  0.00000000E+00
                       0.00000000E+00  5.00000000E-01  0.00000000E+00
                       2.50000000E-01  5.00000000E-01  0.00000000E+00
                       5.00000000E-01  5.00000000E-01  0.00000000E+00
                       0.00000000E+00  0.00000000E+00  2.50000000E-01
                       2.50000000E-01  0.00000000E+00  2.50000000E-01
                       5.00000000E-01  0.00000000E+00  2.50000000E-01
                      -2.50000000E-01  0.00000000E+00  2.50000000E-01
                       0.00000000E+00  2.50000000E-01  2.50000000E-01
                       2.50000000E-01  2.50000000E-01  2.50000000E-01
                       5.00000000E-01  2.50000000E-01  2.50000000E-01
                      -2.50000000E-01  2.50000000E-01  2.50000000E-01
                       0.00000000E+00  5.00000000E-01  2.50000000E-01
                       2.50000000E-01  5.00000000E-01  2.50000000E-01
                       5.00000000E-01  5.00000000E-01  2.50000000E-01
                      -2.50000000E-01  5.00000000E-01  2.50000000E-01
                       0.00000000E+00 -2.50000000E-01  2.50000000E-01
                       2.50000000E-01 -2.50000000E-01  2.50000000E-01
                       5.00000000E-01 -2.50000000E-01  2.50000000E-01
                      -2.50000000E-01 -2.50000000E-01  2.50000000E-01
                       0.00000000E+00  0.00000000E+00  5.00000000E-01
                       2.50000000E-01  0.00000000E+00  5.00000000E-01
                       5.00000000E-01  0.00000000E+00  5.00000000E-01
                       0.00000000E+00  2.50000000E-01  5.00000000E-01
                       2.50000000E-01  2.50000000E-01  5.00000000E-01
                       5.00000000E-01  2.50000000E-01  5.00000000E-01
                      -2.50000000E-01  2.50000000E-01  5.00000000E-01
                       0.00000000E+00  5.00000000E-01  5.00000000E-01
                       2.50000000E-01  5.00000000E-01  5.00000000E-01
                       5.00000000E-01  5.00000000E-01  5.00000000E-01
           kptopt           2
         kptrlatt        4    0    0      0    4    0      0    0    4
          kptrlen      3.83657340E+01
P           mkmem           2
P          mkqmem           2
P          mk1mem           2
            natom          12
            nband          48
           nbdbuf1          0
           nbdbuf2          2
           nbdbuf3          0
           ndtset           3
            ngfft          48      48      48
             nkpt          36
            nstep1        100
            nstep2         30
            nstep3        100
             nsym           8
           ntypat           2
              occ      2.000000  2.000000  2.000000  2.000000  2.000000  2.000000
                       2.000000  2.000000  2.000000  2.000000  2.000000  2.000000
                       2.000000  2.000000  2.000000  2.000000  2.000000  2.000000
                       2.000000  2.000000  2.000000  2.000000  2.000000  2.000000
                       2.000000  2.000000  2.000000  2.000000  2.000000  2.000000
                       2.000000  2.000000  2.000000  2.000000  2.000000  2.000000
                       2.000000  2.000000  2.000000  2.000000  2.000000  2.000000
                       2.000000  2.000000  2.000000  2.000000  2.000000  2.000000
        optdriver1          0
        optdriver2          0
        optdriver3          1
        pawecutdg      3.00000000E+01 Hartree
         pawxcdev           0
           prtden1          1
           prtden2          0
           prtden3          0
           prteig           0
            prtwf1          1
            prtwf2          1
            prtwf3          0
          rfatpol1          1       1
          rfatpol2          1       1
          rfatpol3          1      12
            rfdir1          0       0       0
            rfdir2          1       1       1
            rfdir3          1       1       1
           rfelfd1          0
           rfelfd2          0
           rfelfd3          3
           rfphon1          0
           rfphon2          0
           rfphon3          1
           rfstrs1          0
           rfstrs2          0
           rfstrs3          3
          spgroup         111
           strten1    -1.4145998180E-04 -1.4145998180E-04 -4.4793377931E-04
                       0.0000000000E+00  0.0000000000E+00  0.0000000000E+00
           strten3     0.0000000000E+00  0.0000000000E+00  0.0000000000E+00
                       0.0000000000E+00  0.0000000000E+00  0.0000000000E+00
        symmorphi           0
           symrel      1  0  0   0  1  0   0  0  1      -1  0  0   0  1  0   0  0 -1
                      -1  0  0   0 -1  0   0  0  1       1  0  0   0 -1  0   0  0 -1
                       0  1  0   1  0  0   0  0  1       0 -1  0   1  0  0   0  0 -1
                       0 -1  0  -1  0  0   0  0  1       0  1  0  -1  0  0   0  0 -1
           toldfe1     1.00000000E-13 Hartree
           toldfe2     0.00000000E+00 Hartree
           toldfe3     0.00000000E+00 Hartree
           tolvrs1     0.00000000E+00
           tolvrs2     0.00000000E+00
           tolvrs3     1.00000000E-13
           tolwfr1     0.00000000E+00
           tolwfr2     1.00000000E-22
           tolwfr3     0.00000000E+00
            typat      1  1  1  1  2  2  2  2  2  2  2  2
              wtk        0.01563    0.03125    0.01563    0.03125    0.03125    0.03125
                         0.03125    0.01563    0.03125    0.01563    0.03125    0.03125
                         0.03125    0.03125    0.03125    0.03125    0.03125    0.03125
                         0.03125    0.03125    0.03125    0.03125    0.03125    0.03125
                         0.03125    0.03125    0.01563    0.03125    0.01563    0.03125
                         0.03125    0.03125    0.03125    0.01563    0.03125    0.01563
           xangst      0.0000000000E+00  0.0000000000E+00  0.0000000000E+00
                       2.5377840000E+00  2.5377840000E+00  0.0000000000E+00
                       0.0000000000E+00  2.5377840000E+00  2.5377840000E+00
                       2.5377840000E+00  0.0000000000E+00  2.5377840000E+00
                       1.2689242770E+00  1.2689242770E+00  1.0234194571E+00
                       1.2688260153E+00  1.2688260153E+00  3.5612132522E+00
                       3.8066437230E+00  3.8066437230E+00  1.0234194571E+00
                       3.8067419847E+00  3.8067419847E+00  3.5612132522E+00
                       1.2688260153E+00  3.8067419847E+00  1.5143547478E+00
                       1.2689242770E+00  3.8066437230E+00  4.0521485429E+00
                       3.8067419847E+00  1.2688260153E+00  1.5143547478E+00
                       3.8066437230E+00  1.2689242770E+00  4.0521485429E+00
            xcart      0.0000000000E+00  0.0000000000E+00  0.0000000000E+00
                       4.7957167444E+00  4.7957167444E+00  0.0000000000E+00
                       0.0000000000E+00  4.7957167444E+00  4.7957167444E+00
                       4.7957167444E+00  0.0000000000E+00  4.7957167444E+00
                       2.3979193669E+00  2.3979193669E+00  1.9339824929E+00
                       2.3977336793E+00  2.3977336793E+00  6.7297177474E+00
                       7.1935141219E+00  7.1935141219E+00  1.9339824929E+00
                       7.1936998096E+00  7.1936998096E+00  6.7297177474E+00
                       2.3977336793E+00  7.1936998096E+00  2.8617157415E+00
                       2.3979193669E+00  7.1935141219E+00  7.6574509959E+00
                       7.1936998096E+00  2.3977336793E+00  2.8617157415E+00
                       7.1935141219E+00  2.3979193669E+00  7.6574509959E+00
             xred      0.0000000000E+00  0.0000000000E+00  0.0000000000E+00
                       5.0000000000E-01  5.0000000000E-01  0.0000000000E+00
                       0.0000000000E+00  5.0000000000E-01  5.0000000000E-01
                       5.0000000000E-01  0.0000000000E+00  5.0000000000E-01
                       2.5000635929E-01  2.5000635929E-01  2.0163643893E-01
                       2.4998699955E-01  2.4998699955E-01  7.0163836878E-01
                       7.4999364071E-01  7.4999364071E-01  2.0163643893E-01
                       7.5001300045E-01  7.5001300045E-01  7.0163836878E-01
                       2.4998699955E-01  7.5001300045E-01  2.9836163122E-01
                       2.5000635929E-01  7.4999364071E-01  7.9836356107E-01
                       7.5001300045E-01  2.4998699955E-01  2.9836163122E-01
                       7.4999364071E-01  2.5000635929E-01  7.9836356107E-01
            znucl       72.00000    8.00000
 
================================================================================


- Timing analysis has been suppressed with timopt=0



================================================================================

 Suggested references for the acknowledgment of ABINIT usage.

 The users of ABINIT have little formal obligations with respect to the ABINIT group
 (those specified in the GNU General Public License, http://www.gnu.org/copyleft/gpl.txt).
 However, it is common practice in the scientific literature,
 to acknowledge the efforts of people that have made the research possible.
 In this spirit, please find below suggested citations of work written by ABINIT developers,
 corresponding to implementations inside of ABINIT that you have used in the present run.
 Note also that it will be of great value to readers of publications presenting these results,
 to read papers enabling them to understand the theoretical formalism and details
 of the ABINIT implementation.
 For information on why they are suggested, see also https://docs.abinit.org/theory/acknowledgments.
-
- [1] Metric tensor formulation of strain in density-functional perturbation theory, 
- D. R. Hamann, X. Wu, K. M. Rabe, and D. Vanderbilt, Phys. Rev. B71, 035117 (2005).
- Comment: Non-vanishing rfstrs. Strong suggestion to cite this paper in your publications.
- DOI and bibtex: see https://docs.abinit.org/theory/bibliography/#hamann2005
-
- [2] The Abinit project: Impact, environment and recent developments.
- Computer Phys. Comm. 248, 107042 (2020).
- X.Gonze, B. Amadon, G. Antonius, F.Arnardi, L.Baguet, J.-M.Beuken,
- J.Bieder, F.Bottin, J.Bouchet, E.Bousquet, N.Brouwer, F.Bruneval,
- G.Brunin, T.Cavignac, J.-B. Charraud, Wei Chen, M.Cote, S.Cottenier,
- J.Denier, G.Geneste, Ph.Ghosez, M.Giantomassi, Y.Gillet, O.Gingras,
- D.R.Hamann, G.Hautier, Xu He, N.Helbig, N.Holzwarth, Y.Jia, F.Jollet,
- W.Lafargue-Dit-Hauret, K.Lejaeghere, M.A.L.Marques, A.Martin, C.Martins,
- H.P.C. Miranda, F.Naccarato, K. Persson, G.Petretto, V.Planes, Y.Pouillon,
- S.Prokhorenko, F.Ricci, G.-M.Rignanese, A.H.Romero, M.M.Schmitt, M.Torrent,
- M.J.van Setten, B.Van Troeye, M.J.Verstraete, G.Zerah and J.W.Zwanzig
- Comment: the fifth generic paper describing the ABINIT project.
- Note that a version of this paper, that is not formatted for Computer Phys. Comm. 
- is available at https://www.abinit.org/sites/default/files/ABINIT20.pdf .
- The licence allows the authors to put it on the Web.
- DOI and bibtex: see https://docs.abinit.org/theory/bibliography/#gonze2020
-
- [3] First-principles responses of solids to atomic displacements and homogeneous electric fields:,
- implementation of a conjugate-gradient algorithm. X. Gonze, Phys. Rev. B55, 10337 (1997).
- Comment: Non-vanishing rfphon and/or rfelfd, in the norm-conserving case.
- DOI and bibtex: see https://docs.abinit.org/theory/bibliography/#gonze1997
-
- [4] Dynamical matrices, Born effective charges, dielectric permittivity tensors, and ,
- interatomic force constants from density-functional perturbation theory,
- X. Gonze and C. Lee, Phys. Rev. B55, 10355 (1997).
- Comment: Non-vanishing rfphon and/or rfelfd, in the norm-conserving case.
- DOI and bibtex: see https://docs.abinit.org/theory/bibliography/#gonze1997a
-
- [5] Optimized norm-conserving Vanderbilt pseudopotentials.
- D.R. Hamann, Phys. Rev. B 88, 085117 (2013).
- Comment: Some pseudopotential generated using the ONCVPSP code were used.
- DOI and bibtex: see https://docs.abinit.org/theory/bibliography/#hamann2013
-
- [6] ABINIT: Overview, and focus on selected capabilities
- J. Chem. Phys. 152, 124102 (2020).
- A. Romero, D.C. Allan, B. Amadon, G. Antonius, T. Applencourt, L.Baguet,
- J.Bieder, F.Bottin, J.Bouchet, E.Bousquet, F.Bruneval,
- G.Brunin, D.Caliste, M.Cote,
- J.Denier, C. Dreyer, Ph.Ghosez, M.Giantomassi, Y.Gillet, O.Gingras,
- D.R.Hamann, G.Hautier, F.Jollet, G. Jomard,
- A.Martin, 
- H.P.C. Miranda, F.Naccarato, G.Petretto, N.A. Pike, V.Planes,
- S.Prokhorenko, T. Rangel, F.Ricci, G.-M.Rignanese, M.Royo, M.Stengel, M.Torrent,
- M.J.van Setten, B.Van Troeye, M.J.Verstraete, J.Wiktor, J.W.Zwanziger, and X.Gonze.
- Comment: a global overview of ABINIT, with focus on selected capabilities .
- Note that a version of this paper, that is not formatted for J. Chem. Phys 
- is available at https://www.abinit.org/sites/default/files/ABINIT20_JPC.pdf .
- The licence allows the authors to put it on the Web.
- DOI and bibtex: see https://docs.abinit.org/theory/bibliography/#romero2020
-
- [7] Recent developments in the ABINIT software package.
- Computer Phys. Comm. 205, 106 (2016).
- X.Gonze, F.Jollet, F.Abreu Araujo, D.Adams, B.Amadon, T.Applencourt,
- C.Audouze, J.-M.Beuken, J.Bieder, A.Bokhanchuk, E.Bousquet, F.Bruneval
- D.Caliste, M.Cote, F.Dahm, F.Da Pieve, M.Delaveau, M.Di Gennaro,
- B.Dorado, C.Espejo, G.Geneste, L.Genovese, A.Gerossier, M.Giantomassi,
- Y.Gillet, D.R.Hamann, L.He, G.Jomard, J.Laflamme Janssen, S.Le Roux,
- A.Levitt, A.Lherbier, F.Liu, I.Lukacevic, A.Martin, C.Martins,
- M.J.T.Oliveira, S.Ponce, Y.Pouillon, T.Rangel, G.-M.Rignanese,
- A.H.Romero, B.Rousseau, O.Rubel, A.A.Shukri, M.Stankovski, M.Torrent,
- M.J.Van Setten, B.Van Troeye, M.J.Verstraete, D.Waroquier, J.Wiktor,
- B.Xu, A.Zhou, J.W.Zwanziger.
- Comment: the fourth generic paper describing the ABINIT project.
- Note that a version of this paper, that is not formatted for Computer Phys. Comm. 
- is available at https://www.abinit.org/sites/default/files/ABINIT16.pdf .
- The licence allows the authors to put it on the Web.
- DOI and bibtex: see https://docs.abinit.org/theory/bibliography/#gonze2016
-
- Proc.   0 individual time (sec): cpu=        855.8  wall=        857.4
 
================================================================================
 
 Calculation completed.
.Delivered   0 WARNINGs and  23 COMMENTs to log file.
+Overall time at end (sec) : cpu=      27432.3  wall=      27433.1
