
.Version 9.4.2 of ABINIT 
.(MPI version, prepared for a x86_64_linux_intel19.0 computer) 

.Copyright (C) 1998-2021 ABINIT group . 
 ABINIT comes with ABSOLUTELY NO WARRANTY.
 It is free software, and you are welcome to redistribute it
 under certain conditions (GNU General Public License,
 see ~abinit/COPYING or http://www.gnu.org/copyleft/gpl.txt).

 ABINIT is a project of the Universite Catholique de Louvain,
 Corning Inc. and other collaborators, see ~abinit/doc/developers/contributors.txt .
 Please read https://docs.abinit.org/theory/acknowledgments for suggested
 acknowledgments of the ABINIT effort.
 For more information, see https://www.abinit.org .

.Starting date : Tue 22 Jun 2021.
- ( at 08h40 )
  
- input  file    -> /p/work1/jiahaoz/HfO4/CUBIC_ITERATE/iterone/P0.10/itenoe10
- output file    -> /p/work1/jiahaoz/HfO4/CUBIC_ITERATE/iterone/P0.10/itenoe10.abo
- root for input  files -> i
- root for output files -> o
 
 
 DATASET    1 : space group P2 (#  3); Bravais mP (primitive monocl.)
================================================================================
 Values of the parameters that define the memory need for DATASET  1.
     intxc =       0    ionmov =       0      iscf =       7    lmnmax =       8
     lnmax =       8     mgfft =      45  mpssoang =       4    mqgrid =    3001
     natom =      12  nloc_mem =       1    nspden =       1   nspinor =       1
    nsppol =       1      nsym =       2    n1xccc =    2501    ntypat =       2
    occopt =       1   xclevel =       2
-    mband =          48        mffmem =           1         mkmem =           4
       mpw =        5294          nfft =       91125          nkpt =         112
================================================================================
P This job should need less than                      46.953 Mbytes of memory.
  Rough estimation (10% accuracy) of disk space for files :
_ WF disk file :    434.275 Mbytes ; DEN or POT disk file :      0.697 Mbytes.
================================================================================
 
 
 DATASET    2 : space group P2 (#  3); Bravais mP (primitive monocl.)
================================================================================
 Values of the parameters that define the memory need for DATASET  2.
     intxc =       0    ionmov =       0      iscf =       7    lmnmax =       8
     lnmax =       8     mgfft =      45  mpssoang =       4    mqgrid =    3001
     natom =      12  nloc_mem =       1    nspden =       1   nspinor =       1
    nsppol =       1      nsym =       2    n1xccc =    2501    ntypat =       2
    occopt =       1   xclevel =       2
-    mband =          48        mffmem =           1         mkmem =           4
       mpw =        5294          nfft =       91125          nkpt =         112
================================================================================
P This job should need less than                      46.953 Mbytes of memory.
  Rough estimation (10% accuracy) of disk space for files :
_ WF disk file :    434.275 Mbytes ; DEN or POT disk file :      0.697 Mbytes.
================================================================================
 
--------------------------------------------------------------------------------
------------- Echo of variables that govern the present computation ------------
--------------------------------------------------------------------------------
-
- outvars: echo of selected default values                                      
-   iomode0 =  0 , fftalg0 =512 , wfoptalg0 =  0
-
- outvars: echo of global parameters not present in the input file              
-  max_nthreads =    0
-
 -outvars: echo values of preprocessed input variables --------
            acell      9.5914334888E+00  9.5914334888E+00  9.5914334888E+00 Bohr
              amu      1.78490000E+02  1.59994000E+01
         berryopt1         -1
         berryopt2          4
          chkprim           0
             ecut      2.50000000E+01 Hartree
           ecutsm      5.00000000E-01 Hartree
-          fftalg         512
           getwfk1          0
           getwfk2          1
           istwfk        1    0    0    1    0    0    0    0    0    0
                         0    0    0    0    0    0    1    0    0    1
                         0    0    0    0    0    0    0    0    0    0
                         0    0    0    0    0    0    0    0    0    0
                         0    0    0    0    0    0    0    0    0    0
                       outvar_i_n : Printing only first  50 k-points.
              ixc          11
           jdtset        1    2
              kpt      0.00000000E+00  0.00000000E+00  0.00000000E+00
                       1.66666667E-01  0.00000000E+00  0.00000000E+00
                       3.33333333E-01  0.00000000E+00  0.00000000E+00
                       5.00000000E-01  0.00000000E+00  0.00000000E+00
                       0.00000000E+00  1.66666667E-01  0.00000000E+00
                       1.66666667E-01  1.66666667E-01  0.00000000E+00
                       3.33333333E-01  1.66666667E-01  0.00000000E+00
                       5.00000000E-01  1.66666667E-01  0.00000000E+00
                      -3.33333333E-01  1.66666667E-01  0.00000000E+00
                      -1.66666667E-01  1.66666667E-01  0.00000000E+00
                       0.00000000E+00  3.33333333E-01  0.00000000E+00
                       1.66666667E-01  3.33333333E-01  0.00000000E+00
                       3.33333333E-01  3.33333333E-01  0.00000000E+00
                       5.00000000E-01  3.33333333E-01  0.00000000E+00
                      -3.33333333E-01  3.33333333E-01  0.00000000E+00
                      -1.66666667E-01  3.33333333E-01  0.00000000E+00
                       0.00000000E+00  5.00000000E-01  0.00000000E+00
                       1.66666667E-01  5.00000000E-01  0.00000000E+00
                       3.33333333E-01  5.00000000E-01  0.00000000E+00
                       5.00000000E-01  5.00000000E-01  0.00000000E+00
                       0.00000000E+00  0.00000000E+00  1.66666667E-01
                       1.66666667E-01  0.00000000E+00  1.66666667E-01
                       3.33333333E-01  0.00000000E+00  1.66666667E-01
                       5.00000000E-01  0.00000000E+00  1.66666667E-01
                      -3.33333333E-01  0.00000000E+00  1.66666667E-01
                      -1.66666667E-01  0.00000000E+00  1.66666667E-01
                       0.00000000E+00  1.66666667E-01  1.66666667E-01
                       1.66666667E-01  1.66666667E-01  1.66666667E-01
                       3.33333333E-01  1.66666667E-01  1.66666667E-01
                       5.00000000E-01  1.66666667E-01  1.66666667E-01
                      -3.33333333E-01  1.66666667E-01  1.66666667E-01
                      -1.66666667E-01  1.66666667E-01  1.66666667E-01
                       0.00000000E+00  3.33333333E-01  1.66666667E-01
                       1.66666667E-01  3.33333333E-01  1.66666667E-01
                       3.33333333E-01  3.33333333E-01  1.66666667E-01
                       5.00000000E-01  3.33333333E-01  1.66666667E-01
                      -3.33333333E-01  3.33333333E-01  1.66666667E-01
                      -1.66666667E-01  3.33333333E-01  1.66666667E-01
                       0.00000000E+00  5.00000000E-01  1.66666667E-01
                       1.66666667E-01  5.00000000E-01  1.66666667E-01
                       3.33333333E-01  5.00000000E-01  1.66666667E-01
                       5.00000000E-01  5.00000000E-01  1.66666667E-01
                      -3.33333333E-01  5.00000000E-01  1.66666667E-01
                      -1.66666667E-01  5.00000000E-01  1.66666667E-01
                       0.00000000E+00 -3.33333333E-01  1.66666667E-01
                       1.66666667E-01 -3.33333333E-01  1.66666667E-01
                       3.33333333E-01 -3.33333333E-01  1.66666667E-01
                       5.00000000E-01 -3.33333333E-01  1.66666667E-01
                      -3.33333333E-01 -3.33333333E-01  1.66666667E-01
                      -1.66666667E-01 -3.33333333E-01  1.66666667E-01
                       outvar_i_n : Printing only first  50 k-points.
           kptopt           2
         kptrlatt        6    0    0      0    6    0      0    0    6
          kptrlen      5.75486009E+01
P           mkmem           4
            natom          12
            nband          48
           ndtset           2
            ngfft          45      45      45
             nkpt         112
            nstep         100
             nsym           2
           ntypat           2
              occ      2.000000  2.000000  2.000000  2.000000  2.000000  2.000000
                       2.000000  2.000000  2.000000  2.000000  2.000000  2.000000
                       2.000000  2.000000  2.000000  2.000000  2.000000  2.000000
                       2.000000  2.000000  2.000000  2.000000  2.000000  2.000000
                       2.000000  2.000000  2.000000  2.000000  2.000000  2.000000
                       2.000000  2.000000  2.000000  2.000000  2.000000  2.000000
                       2.000000  2.000000  2.000000  2.000000  2.000000  2.000000
                       2.000000  2.000000  2.000000  2.000000  2.000000  2.000000
        pawecutdg      2.50000000E+01 Hartree
         pawxcdev           0
            rfdir1          1       1       1
            rfdir2          0       0       0
          spgroup           3
        symmorphi           0
           symrel      1  0  0   0  1  0   0  0  1      -1  0  0   0  1  0   0  0 -1
           toldfe      1.00000000E-10 Hartree
           tolmxf      1.00000000E-05
           tsmear      4.00000000E-02 Hartree
            typat      1  1  1  1  2  2  2  2  2  2  2  2
              wtk        0.00463    0.00926    0.00926    0.00463    0.00926    0.00926
                         0.00926    0.00926    0.00926    0.00926    0.00926    0.00926
                         0.00926    0.00926    0.00926    0.00926    0.00463    0.00926
                         0.00926    0.00463    0.00926    0.00926    0.00926    0.00926
                         0.00926    0.00926    0.00926    0.00926    0.00926    0.00926
                         0.00926    0.00926    0.00926    0.00926    0.00926    0.00926
                         0.00926    0.00926    0.00926    0.00926    0.00926    0.00926
                         0.00926    0.00926    0.00926    0.00926    0.00926    0.00926
                         0.00926    0.00926
                       outvars : Printing only first  50 k-points.
           xangst      0.0000000000E+00  4.1885262073E-02  0.0000000000E+00
                       2.5377840000E+00  2.5796608874E+00  0.0000000000E+00
                       0.0000000000E+00  2.5797044865E+00  2.5377840000E+00
                       2.5377840000E+00  4.1891251244E-02  2.5377840000E+00
                       1.3007327130E+00  1.2683262264E+00  1.0212127070E+00
                       1.2370556012E+00  1.2682910020E+00  3.5590020364E+00
                       3.8384622014E+00  3.8060777936E+00  1.0212452922E+00
                       3.7749040102E+00  3.8061601700E+00  3.5590415751E+00
                       1.3006639898E+00  3.8061601700E+00  1.5165264249E+00
                       1.2371057986E+00  3.8060777936E+00  4.0543227078E+00
                       3.8385123988E+00  1.2682910020E+00  1.5165659636E+00
                       3.7748352870E+00  1.2683262264E+00  4.0543552930E+00
            xcart      0.0000000000E+00  7.9151674323E-02  0.0000000000E+00
                       4.7957167444E+00  4.8748525929E+00  0.0000000000E+00
                       0.0000000000E+00  4.8749349833E+00  4.7957167444E+00
                       4.7957167444E+00  7.9162992214E-02  4.7957167444E+00
                       2.4580285997E+00  2.3967892151E+00  1.9298123397E+00
                       2.3376962975E+00  2.3967226506E+00  6.7255391552E+00
                       7.2536423321E+00  7.1924446703E+00  1.9298739167E+00
                       7.1335347572E+00  7.1926003392E+00  6.7256138724E+00
                       2.4578987316E+00  7.1926003392E+00  2.8658196164E+00
                       2.3377911568E+00  7.1924446703E+00  7.6615595721E+00
                       7.2537371914E+00  2.3967226506E+00  2.8658943337E+00
                       7.1334048892E+00  2.3967892151E+00  7.6616211491E+00
             xred      0.0000000000E+00  8.2523300000E-03  0.0000000000E+00
                       5.0000000000E-01  5.0825068000E-01  0.0000000000E+00
                       0.0000000000E+00  5.0825927000E-01  5.0000000000E-01
                       5.0000000000E-01  8.2535100000E-03  5.0000000000E-01
                       2.5627333000E-01  2.4988853000E-01  2.0120166000E-01
                       2.4372752000E-01  2.4988159000E-01  7.0120271000E-01
                       7.5626259000E-01  7.4988214000E-01  2.0120808000E-01
                       7.4374021000E-01  7.4989837000E-01  7.0121050000E-01
                       2.5625979000E-01  7.4989837000E-01  2.9878950000E-01
                       2.4373741000E-01  7.4988214000E-01  7.9879192000E-01
                       7.5627248000E-01  2.4988159000E-01  2.9879729000E-01
                       7.4372667000E-01  2.4988853000E-01  7.9879834000E-01
            znucl       72.00000    8.00000
 
================================================================================
 
 chkinp: Checking input parameters for consistency, jdtset=   1.
 
 chkinp: Checking input parameters for consistency, jdtset=   2.
 
================================================================================
== DATASET  1 ==================================================================
-   mpi_nproc: 32, omp_nthreads: -1 (-1 if OMP is not activated)
-    --> not optimal distribution: autoparal keyword recommended in input file <--
 

--- !DatasetInfo
iteration_state: {dtset: 1, }
dimensions: {natom: 12, nkpt: 112, mband: 48, nsppol: 1, nspinor: 1, nspden: 1, mpw: 5294, }
cutoff_energies: {ecut:  25.0, pawecutdg:  25.0, }
electrons: {nelect:   9.60000000E+01, charge:   0.00000000E+00, occopt:   1.00000000E+00, tsmear:   4.00000000E-02, }
meta: {optdriver: 0, ionmov: 0, optcell: 0, iscf: 7, paral_kgb: 0, }
...

 Exchange-correlation functional for the present dataset will be:
  GGA: Perdew-Burke-Ernzerhof functional - ixc=11
 Citation for XC functional:
  J.P.Perdew, K.Burke, M.Ernzerhof, PRL 77, 3865 (1996)
 
 Real(R)+Recip(G) space primitive vectors, cartesian coordinates (Bohr,Bohr^-1):
 R(1)=  9.5914335  0.0000000  0.0000000  G(1)=  0.1042597  0.0000000  0.0000000
 R(2)=  0.0000000  9.5914335  0.0000000  G(2)=  0.0000000  0.1042597  0.0000000
 R(3)=  0.0000000  0.0000000  9.5914335  G(3)=  0.0000000  0.0000000  0.1042597
 Unit cell volume ucvol=  8.8236964E+02 bohr^3
 Angles (23,13,12)=  9.00000000E+01  9.00000000E+01  9.00000000E+01 degrees
 
 getcut: wavevector=  0.0000  0.0000  0.0000  ngfft=  45  45  45
         ecut(hartree)=     25.000   => boxcut(ratio)=   2.03814
 
--- Pseudopotential description ------------------------------------------------
- pspini: atom type   1  psp file is /p/work1/jiahaoz/HfO4/pbe_s_sr/Hf.psp8
- pspatm: opening atomic psp file    /p/work1/jiahaoz/HfO4/pbe_s_sr/Hf.psp8
- Hf    ONCVPSP  r_core=  1.72  1.72  1.72  2.43
- 72.00000  12.00000    160625                znucl, zion, pspdat
    8   11    3    4       600   0.00000      pspcod,pspxc,lmax,lloc,mmax,r2well
    5.99000000000000    5.40000000000000    0.00000000000000   rchrg,fchrg,qchrg
     nproj     2     2     2     2
     extension_switch     1
  pspatm : epsatm=   21.98649506
         --- l  ekb(1:nproj) -->
             0    5.812335   -0.521211
             1   -3.038329    2.466565
             2    2.060039    0.471534
             3    9.947446    0.353012
 pspatm: atomic psp has been read  and splines computed
 
- pspini: atom type   2  psp file is /p/work1/jiahaoz/HfO4/pbe_s_sr/O.psp8
- pspatm: opening atomic psp file    /p/work1/jiahaoz/HfO4/pbe_s_sr/O.psp8
- O     ONCVPSP  r_core=  1.36  1.46  1.26
-  8.00000   6.00000    151103                znucl, zion, pspdat
    8   11    2    4       600   0.00000      pspcod,pspxc,lmax,lloc,mmax,r2well
    5.99000000000000    4.00000000000000    0.00000000000000   rchrg,fchrg,qchrg
     nproj     2     2     1
     extension_switch     1
  pspatm : epsatm=    6.19401560
         --- l  ekb(1:nproj) -->
             0    5.257212    0.704241
             1   -5.135443   -1.451781
             2   -4.371486
 pspatm: atomic psp has been read  and splines computed
 
   1.31998181E+04                                ecore*ucvol(ha*bohr**3)
--------------------------------------------------------------------------------
 
_setup2: Arith. and geom. avg. npw (full set) are    5268.875    5268.869
  initberry: for direction 1, nkstr =   6, nstr =     36
  initberry: for direction 2, nkstr =   6, nstr =     36
  initberry: for direction 3, nkstr =   6, nstr =     36
 
================================================================================

--- !BeginCycle
iteration_state: {dtset: 1, }
solver: {iscf: 7, nstep: 100, nline: 4, wfoptalg: 0, }
tolerances: {toldfe: 1.00E-10, }
...
 
     iter   Etot(hartree)      deltaE(h)  residm     vres2
 ETOT  1  -357.49426990917    -3.575E+02 3.302E-01 1.108E+03
 ETOT  2  -357.90227135578    -4.080E-01 3.481E-02 1.016E+03
 ETOT  3  -358.60139455302    -6.991E-01 2.608E-03 5.631E+01
 ETOT  4  -358.63400888780    -3.261E-02 1.085E-04 1.276E-01
 ETOT  5  -358.63407580682    -6.692E-05 3.734E-06 5.560E-02
 ETOT  6  -358.63410078523    -2.498E-05 5.861E-07 1.274E-02
 ETOT  7  -358.63410701481    -6.230E-06 6.851E-08 3.596E-04
 ETOT  8  -358.63410707245    -5.764E-08 3.681E-09 2.573E-04
 ETOT  9  -358.63410715752    -8.507E-08 1.511E-09 1.113E-05
 ETOT 10  -358.63410716299    -5.474E-09 2.546E-11 1.498E-07
 ETOT 11  -358.63410716304    -4.792E-11 1.633E-12 2.313E-08
 ETOT 12  -358.63410716305    -8.811E-12 8.027E-14 1.542E-09
 
 At SCF step   12, etot is converged : 
  for the second time, diff in etot=  8.811E-12 < toldfe=  1.000E-10
 
 Computing the polarization (Berry phase) for reciprocal vector:
  0.16667  0.00000  0.00000 (in reduced coordinates)
  0.01738  0.00000  0.00000 (in cartesian coordinates - atomic units)
 Number of strings:    36
 Number of k points in string:    6
 
 Summary of the results
 Electronic Berry phase     1.816930859E-10
            Ionic phase     1.110223025E-15
            Total phase     1.816941962E-10
    Remapping in [-1,1]     1.816941962E-10
 
           Polarization     1.975031451E-12 (a.u. of charge)/bohr^2
           Polarization     1.130009534E-10 C/m^2
 
 
 Computing the polarization (Berry phase) for reciprocal vector:
  0.00000  0.16667  0.00000 (in reduced coordinates)
  0.00000  0.01738  0.00000 (in cartesian coordinates - atomic units)
 Number of strings:    36
 Number of k points in string:    6
 
 Summary of the results
 Electronic Berry phase    -2.362332639E-01
            Ionic phase     3.907970400E-01
            Total phase     1.545637761E-01
    Remapping in [-1,1]     1.545637761E-01
 
           Polarization     1.680121464E-03 (a.u. of charge)/bohr^2
           Polarization     9.612774883E-02 C/m^2
 
 
 Computing the polarization (Berry phase) for reciprocal vector:
  0.00000  0.00000  0.16667 (in reduced coordinates)
  0.00000  0.00000  0.01738 (in cartesian coordinates - atomic units)
 Number of strings:    36
 Number of k points in string:    6
 
 Summary of the results
 Electronic Berry phase     4.438027878E-11
            Ionic phase    -4.440892099E-16
            Total phase     4.437983469E-11
    Remapping in [-1,1]     4.437983469E-11
 
           Polarization     4.824125984E-13 (a.u. of charge)/bohr^2
           Polarization     2.760112175E-11 C/m^2
 
 
 Polarization in cartesian coordinates (a.u.):
 (the sum of the electronic and ionic Berry phase has been folded into [-1, 1])
     Electronic berry phase:        0.197501938E-11  -0.256787578E-02   0.482417426E-12
     Ionic:                         0.120682192E-16   0.424799725E-02  -0.482728769E-17  
     Total:                         0.197503145E-11   0.168012146E-02   0.482412598E-12
 
 Polarization in cartesian coordinates (C/m^2):
 (the sum of the electronic and ionic Berry phase has been folded into [-1, 1])
     Electronic berry phase:        0.113000263E-09  -0.146920400E+00   0.276013979E-10
     Ionic:                         0.690480284E-15   0.243048149E+00  -0.276192114E-15  
     Total:                         0.113000953E-09   0.961277488E-01   0.276011218E-10
 
 Cartesian components of stress tensor (hartree/bohr^3)
  sigma(1 1)= -1.76314353E-04  sigma(3 2)=  0.00000000E+00
  sigma(2 2)= -1.78243898E-04  sigma(3 1)= -2.59353596E-09
  sigma(3 3)= -4.78589015E-04  sigma(2 1)=  0.00000000E+00
 

--- !ResultsGS
iteration_state: {dtset: 1, }
comment   : Summary of ground state results
lattice_vectors:
- [  9.5914335,   0.0000000,   0.0000000, ]
- [  0.0000000,   9.5914335,   0.0000000, ]
- [  0.0000000,   0.0000000,   9.5914335, ]
lattice_lengths: [   9.59143,    9.59143,    9.59143, ]
lattice_angles: [ 90.000,  90.000,  90.000, ] # degrees, (23, 13, 12)
lattice_volume:   8.8236964E+02
convergence: {deltae: -8.811E-12, res2:  1.542E-09, residm:  8.027E-14, diffor: null, }
etotal    :  -3.58634107E+02
entropy   :   0.00000000E+00
fermie    :   2.77018282E-01
cartesian_stress_tensor: # hartree/bohr^3
- [ -1.76314353E-04,   0.00000000E+00,  -2.59353596E-09, ]
- [  0.00000000E+00,  -1.78243898E-04,   0.00000000E+00, ]
- [ -2.59353596E-09,   0.00000000E+00,  -4.78589015E-04, ]
pressure_GPa:   8.1707E+00
xred      :
- [  0.0000E+00,   8.2523E-03,   0.0000E+00, Hf]
- [  5.0000E-01,   5.0825E-01,   0.0000E+00, Hf]
- [  0.0000E+00,   5.0826E-01,   5.0000E-01, Hf]
- [  5.0000E-01,   8.2535E-03,   5.0000E-01, Hf]
- [  2.5627E-01,   2.4989E-01,   2.0120E-01,  O]
- [  2.4373E-01,   2.4988E-01,   7.0120E-01,  O]
- [  7.5626E-01,   7.4988E-01,   2.0121E-01,  O]
- [  7.4374E-01,   7.4990E-01,   7.0121E-01,  O]
- [  2.5626E-01,   7.4990E-01,   2.9879E-01,  O]
- [  2.4374E-01,   7.4988E-01,   7.9879E-01,  O]
- [  7.5627E-01,   2.4988E-01,   2.9880E-01,  O]
- [  7.4373E-01,   2.4989E-01,   7.9880E-01,  O]
cartesian_forces: # hartree/bohr
- [  0.00000000E+00,  -1.22742501E-03,  -7.05860789E-22, ]
- [  0.00000000E+00,  -1.22717421E-03,  -7.05860789E-22, ]
- [  0.00000000E+00,  -1.22719758E-03,  -7.05860789E-22, ]
- [  0.00000000E+00,  -1.22732675E-03,  -7.05860789E-22, ]
- [  1.37944422E-04,   6.13660148E-04,  -1.31318741E-05, ]
- [ -1.37862019E-04,   6.13646602E-04,  -1.33600868E-05, ]
- [  1.37916323E-04,   6.13635886E-04,  -1.31609680E-05, ]
- [ -1.37838361E-04,   6.13619138E-04,  -1.33797689E-05, ]
- [  1.37838361E-04,   6.13619138E-04,   1.33797689E-05, ]
- [ -1.37916323E-04,   6.13635886E-04,   1.31609680E-05, ]
- [  1.37862019E-04,   6.13646602E-04,   1.33600868E-05, ]
- [ -1.37944422E-04,   6.13660148E-04,   1.31318741E-05, ]
force_length_stats: {min:   6.29052366E-04, max:   1.22742501E-03, mean:   8.28481605E-04, }
...

 Integrated electronic density in atomic spheres:
 ------------------------------------------------
 Atom  Sphere_radius  Integrated_density
    1        2.00000          8.32946783
    2        2.00000          8.32018219
    3        2.00000          8.32107678
    4        2.00000          8.31717925
    5        2.00000          6.36766471
    6        2.00000          6.36616679
    7        2.00000          6.37459467
    8        2.00000          6.36495376
    9        2.00000          6.36495376
   10        2.00000          6.37459467
   11        2.00000          6.36616679
   12        2.00000          6.36766471
================================================================================
 
 ----iterations are completed or convergence reached----
 
 Mean square residual over all n,k,spin=   18.446E-15; max=  80.272E-15
 reduced coordinates (array xred) for   12 atoms
       0.000000000000      0.008252330000      0.000000000000
       0.500000000000      0.508250680000      0.000000000000
       0.000000000000      0.508259270000      0.500000000000
       0.500000000000      0.008253510000      0.500000000000
       0.256273330000      0.249888530000      0.201201660000
       0.243727520000      0.249881590000      0.701202710000
       0.756262590000      0.749882140000      0.201208080000
       0.743740210000      0.749898370000      0.701210500000
       0.256259790000      0.749898370000      0.298789500000
       0.243737410000      0.749882140000      0.798791920000
       0.756272480000      0.249881590000      0.298797290000
       0.743726670000      0.249888530000      0.798798340000
 rms dE/dt=  4.8463E-03; max dE/dt=  1.1746E-02; dE/dt below (all hartree)
    1       0.000000000000      0.011745516674      0.000000000000
    2       0.000000000000      0.011743111141      0.000000000000
    3       0.000000000000      0.011743335255      0.000000000000
    4       0.000000000000      0.011744574274      0.000000000000
    5      -0.001323084753     -0.005913129157      0.000125953497
    6       0.001322294388     -0.005912999237      0.000128142384
    7      -0.001322815243     -0.005912896451      0.000126232549
    8       0.001322067473     -0.005912735818      0.000128331164
    9      -0.001322067473     -0.005912735818     -0.000128331164
   10       0.001322815243     -0.005912896451     -0.000126232549
   11      -0.001322294388     -0.005912999237     -0.000128142384
   12       0.001323084753     -0.005913129157     -0.000125953497
 
 cartesian coordinates (angstrom) at end:
    1      0.00000000000000     0.04188526207344     0.00000000000000
    2      2.53778400000000     2.57966088738624     0.00000000000000
    3      0.00000000000000     2.57970448651536     2.53778400000000
    4      2.53778400000000     0.04189125124368     2.53778400000000
    5      1.30073271300144     1.26832622643504     1.02121270704288
    6      1.23705560123136     1.26829100199312     3.55900203638928
    7      3.83846220140112     3.80607779355552     1.02124529218944
    8      3.77490401018928     3.80616017002416     3.55904157506400
    9      1.30066398981072     3.80616017002416     1.51652642493600
   10      1.23710579859888     3.80607779355552     4.05432270781056
   11      3.83851239876864     1.26829100199312     1.51656596361072
   12      3.77483528699856     1.26832622643504     4.05435529295712
 
 cartesian forces (hartree/bohr) at end:
    1      0.00000000000000    -0.00122742500927    -0.00000000000000
    2      0.00000000000000    -0.00122717420915    -0.00000000000000
    3      0.00000000000000    -0.00122719757517    -0.00000000000000
    4      0.00000000000000    -0.00122732675498    -0.00000000000000
    5      0.00013794442240     0.00061366014775    -0.00001313187411
    6     -0.00013786201921     0.00061364660233    -0.00001336008678
    7      0.00013791632342     0.00061363588588    -0.00001316096802
    8     -0.00013783836110     0.00061361913833    -0.00001337976892
    9      0.00013783836110     0.00061361913833     0.00001337976892
   10     -0.00013791632342     0.00061363588588     0.00001316096802
   11      0.00013786201921     0.00061364660233     0.00001336008678
   12     -0.00013794442240     0.00061366014775     0.00001313187411
 frms,max,avg= 5.0527293E-04 1.2274250E-03   0.000E+00  2.841E-06  0.000E+00 h/b
 
 cartesian forces (eV/Angstrom) at end:
    1      0.00000000000000    -0.06311672639047    -0.00000000000000
    2      0.00000000000000    -0.06310382973100    -0.00000000000000
    3      0.00000000000000    -0.06310503125988    -0.00000000000000
    4      0.00000000000000    -0.06311167395214    -0.00000000000000
    5      0.00709338680575     0.03155567089616    -0.00067526806033
    6     -0.00708914946360     0.03155497436248    -0.00068700322650
    7      0.00709194189809     0.03155442330090    -0.00067676412935
    8     -0.00708793291460     0.03155356210721    -0.00068801532294
    9      0.00708793291460     0.03155356210721     0.00068801532294
   10     -0.00709194189809     0.03155442330090     0.00067676412935
   11      0.00708914946360     0.03155497436248     0.00068700322650
   12     -0.00709338680575     0.03155567089616     0.00067526806033
 frms,max,avg= 2.5982177E-02 6.3116726E-02   0.000E+00  1.461E-04  0.000E+00 e/A
 length scales=  9.591433488838  9.591433488838  9.591433488838 bohr
              =  5.075568000000  5.075568000000  5.075568000000 angstroms
 prteigrs : about to open file o_DS1_EIG
 Fermi (or HOMO) energy (hartree) =   0.27702   Average Vxc (hartree)=  -0.44600
 Eigenvalues (hartree) for nkpt= 112  k points:
 kpt#   1, nband= 48, wtk=  0.00463, kpt=  0.0000  0.0000  0.0000 (reduced coord)
  -1.94356   -1.94289   -1.94287   -1.94286   -0.80518   -0.80516   -0.80483   -0.79335
  -0.79305   -0.79273   -0.79246   -0.79147   -0.79141   -0.78849   -0.78691   -0.78690
  -0.39509   -0.33820   -0.32915   -0.32889   -0.31890   -0.31597   -0.31575   -0.29720
   0.06037    0.06043    0.07180    0.09590    0.10272    0.10292    0.16296    0.16415
   0.16650    0.16767    0.17257    0.17259    0.22244    0.22380    0.22723    0.22862
   0.24819    0.25079    0.25478    0.25527    0.25762    0.26614    0.26740    0.27518
 prteigrs : prtvol=0 or 1, do not print more k-points.
 

--- !EnergyTerms
iteration_state     : {dtset: 1, }
comment             : Components of total free energy in Hartree
kinetic             :  1.46202956075301E+02
hartree             :  5.59381457380822E+01
xc                  : -9.09064815964016E+01
Ewald energy        : -2.70140830299184E+02
psp_core            :  1.49595106529080E+01
local_psp           : -2.05573282540585E+02
non_local_psp       : -9.11412519316686E+00
total_energy        : -3.58634107163047E+02
total_energy_eV     : -9.75893035530205E+03
band_energy         : -3.10999379131819E+01
...

 
 Cartesian components of stress tensor (hartree/bohr^3)
  sigma(1 1)= -1.76314353E-04  sigma(3 2)=  0.00000000E+00
  sigma(2 2)= -1.78243898E-04  sigma(3 1)= -2.59353596E-09
  sigma(3 3)= -4.78589015E-04  sigma(2 1)=  0.00000000E+00
 
-Cartesian components of stress tensor (GPa)         [Pressure=  8.1707E+00 GPa]
- sigma(1 1)= -5.18734649E+00  sigma(3 2)=  0.00000000E+00
- sigma(2 2)= -5.24411564E+00  sigma(3 1)= -7.63044496E-05
- sigma(3 3)= -1.40805726E+01  sigma(2 1)=  0.00000000E+00
 
================================================================================
== DATASET  2 ==================================================================
-   mpi_nproc: 32, omp_nthreads: -1 (-1 if OMP is not activated)
-    --> not optimal distribution: autoparal keyword recommended in input file <--
 

--- !DatasetInfo
iteration_state: {dtset: 2, }
dimensions: {natom: 12, nkpt: 112, mband: 48, nsppol: 1, nspinor: 1, nspden: 1, mpw: 5294, }
cutoff_energies: {ecut:  25.0, pawecutdg:  25.0, }
electrons: {nelect:   9.60000000E+01, charge:   0.00000000E+00, occopt:   1.00000000E+00, tsmear:   4.00000000E-02, }
meta: {optdriver: 0, ionmov: 0, optcell: 0, iscf: 7, paral_kgb: 0, }
...

 mkfilename : getwfk/=0, take file _WFK from output of DATASET   1.
 
 Exchange-correlation functional for the present dataset will be:
  GGA: Perdew-Burke-Ernzerhof functional - ixc=11
 Citation for XC functional:
  J.P.Perdew, K.Burke, M.Ernzerhof, PRL 77, 3865 (1996)
 
 Real(R)+Recip(G) space primitive vectors, cartesian coordinates (Bohr,Bohr^-1):
 R(1)=  9.5914335  0.0000000  0.0000000  G(1)=  0.1042597  0.0000000  0.0000000
 R(2)=  0.0000000  9.5914335  0.0000000  G(2)=  0.0000000  0.1042597  0.0000000
 R(3)=  0.0000000  0.0000000  9.5914335  G(3)=  0.0000000  0.0000000  0.1042597
 Unit cell volume ucvol=  8.8236964E+02 bohr^3
 Angles (23,13,12)=  9.00000000E+01  9.00000000E+01  9.00000000E+01 degrees
 
 getcut: wavevector=  0.0000  0.0000  0.0000  ngfft=  45  45  45
         ecut(hartree)=     25.000   => boxcut(ratio)=   2.03814
--------------------------------------------------------------------------------
 
-inwffil : will read wavefunctions from disk file o_DS1_WFK
_setup2: Arith. and geom. avg. npw (full set) are    5268.875    5268.869
  initberry: for direction 1, nkstr =   6, nstr =     36
  initberry: for direction 2, nkstr =   6, nstr =     36
  initberry: for direction 3, nkstr =   6, nstr =     36
 
 initberry: COMMENT - 
  As a rough estimate,
  to be below the critical field, the bandgap of your system
  should be larger than    0.00 eV.
 
 
================================================================================

--- !BeginCycle
iteration_state: {dtset: 2, }
solver: {iscf: 7, nstep: 100, nline: 4, wfoptalg: 0, }
tolerances: {toldfe: 1.00E-10, }
...
 
     iter   Etot(hartree)      deltaE(h)  residm     vres2
 ETOT  1  -358.63410716305    -3.586E+02 2.923E-15 7.692E-09
 ETOT  2  -358.63410716304     3.752E-12 4.493E-15 1.032E-08
 ETOT  3  -358.63410716305    -6.196E-12 3.887E-14 4.087E-11
 
 At SCF step    3, etot is converged : 
  for the second time, diff in etot=  6.196E-12 < toldfe=  1.000E-10
 
 Computing the polarization (Berry phase) for reciprocal vector:
  0.16667  0.00000  0.00000 (in reduced coordinates)
  0.01738  0.00000  0.00000 (in cartesian coordinates - atomic units)
 Number of strings:    36
 Number of k points in string:    6
 
 Summary of the results
 Electronic Berry phase     3.476224697E-12
            Ionic phase     1.110223025E-15
            Total phase     3.477334920E-12
    Remapping in [-1,1]     3.477334920E-12
 
           Polarization     3.779892796E-14 (a.u. of charge)/bohr^2
           Polarization     2.162656647E-12 C/m^2
 
 
 Computing the polarization (Berry phase) for reciprocal vector:
  0.00000  0.16667  0.00000 (in reduced coordinates)
  0.00000  0.01738  0.00000 (in cartesian coordinates - atomic units)
 Number of strings:    36
 Number of k points in string:    6
 
 Summary of the results
 Electronic Berry phase    -2.362332689E-01
            Ionic phase     3.907970400E-01
            Total phase     1.545637711E-01
    Remapping in [-1,1]     1.545637711E-01
 
           Polarization     1.680121410E-03 (a.u. of charge)/bohr^2
           Polarization     9.612774574E-02 C/m^2
 
 
 Computing the polarization (Berry phase) for reciprocal vector:
  0.00000  0.00000  0.16667 (in reduced coordinates)
  0.00000  0.00000  0.01738 (in cartesian coordinates - atomic units)
 Number of strings:    36
 Number of k points in string:    6
 
 Summary of the results
 Electronic Berry phase     1.095183038E-11
            Ionic phase    -4.440892099E-16
            Total phase     1.095138629E-11
    Remapping in [-1,1]     1.095138629E-11
 
           Polarization     1.190425056E-13 (a.u. of charge)/bohr^2
           Polarization     6.810988562E-12 C/m^2
 
 
 Polarization in cartesian coordinates (a.u.):
 (the sum of the electronic and ionic Berry phase has been folded into [-1, 1])
     Electronic berry phase:        0.377868597E-13  -0.256787584E-02   0.119047333E-12
     Ionic:                         0.120682192E-16   0.424799725E-02  -0.482728769E-17  
     Total:                         0.377989280E-13   0.168012141E-02   0.119042506E-12
 
 Polarization in cartesian coordinates (C/m^2):
 (the sum of the electronic and ionic Berry phase has been folded into [-1, 1])
     Electronic berry phase:        0.216196617E-11  -0.146920403E+00   0.681126475E-11
     Ionic:                         0.690480284E-15   0.243048149E+00  -0.276192114E-15  
     Total:                         0.216265665E-11   0.961277457E-01   0.681098856E-11
 
 Stress tensor under a constant electric field:
 
 Cartesian components of Maxwell stress tensor (hartree/bohr^3)
 Maxstr(1 1)=  0.00000000E+00 Maxstr(3 2)=  0.00000000E+00
 Maxstr(2 2)=  0.00000000E+00 Maxstr(3 1)=  0.00000000E+00
 Maxstr(3 3)=  0.00000000E+00 Maxstr(2 1)=  0.00000000E+00
 
 
 Cartesian components of stress tensor (hartree/bohr^3)
  sigma(1 1)= -1.76316843E-04  sigma(3 2)=  0.00000000E+00
  sigma(2 2)= -1.78246399E-04  sigma(3 1)= -2.56599987E-09
  sigma(3 3)= -4.78591076E-04  sigma(2 1)=  0.00000000E+00
 

--- !ResultsGS
iteration_state: {dtset: 2, }
comment   : Summary of ground state results
lattice_vectors:
- [  9.5914335,   0.0000000,   0.0000000, ]
- [  0.0000000,   9.5914335,   0.0000000, ]
- [  0.0000000,   0.0000000,   9.5914335, ]
lattice_lengths: [   9.59143,    9.59143,    9.59143, ]
lattice_angles: [ 90.000,  90.000,  90.000, ] # degrees, (23, 13, 12)
lattice_volume:   8.8236964E+02
convergence: {deltae: -6.196E-12, res2:  4.087E-11, residm:  3.887E-14, diffor: null, }
etotal    :  -3.58634107E+02
entropy   :   0.00000000E+00
fermie    :   2.77018228E-01
cartesian_stress_tensor: # hartree/bohr^3
- [ -1.76316843E-04,   0.00000000E+00,  -2.56599987E-09, ]
- [  0.00000000E+00,  -1.78246399E-04,   0.00000000E+00, ]
- [ -2.56599987E-09,   0.00000000E+00,  -4.78591076E-04, ]
pressure_GPa:   8.1707E+00
xred      :
- [  0.0000E+00,   8.2523E-03,   0.0000E+00, Hf]
- [  5.0000E-01,   5.0825E-01,   0.0000E+00, Hf]
- [  0.0000E+00,   5.0826E-01,   5.0000E-01, Hf]
- [  5.0000E-01,   8.2535E-03,   5.0000E-01, Hf]
- [  2.5627E-01,   2.4989E-01,   2.0120E-01,  O]
- [  2.4373E-01,   2.4988E-01,   7.0120E-01,  O]
- [  7.5626E-01,   7.4988E-01,   2.0121E-01,  O]
- [  7.4374E-01,   7.4990E-01,   7.0121E-01,  O]
- [  2.5626E-01,   7.4990E-01,   2.9879E-01,  O]
- [  2.4374E-01,   7.4988E-01,   7.9879E-01,  O]
- [  7.5627E-01,   2.4988E-01,   2.9880E-01,  O]
- [  7.4373E-01,   2.4989E-01,   7.9880E-01,  O]
cartesian_forces: # hartree/bohr
- [  0.00000000E+00,  -1.22725003E-03,   0.00000000E+00, ]
- [  0.00000000E+00,  -1.22729071E-03,   0.00000000E+00, ]
- [  0.00000000E+00,  -1.22731008E-03,   0.00000000E+00, ]
- [  0.00000000E+00,  -1.22720502E-03,   0.00000000E+00, ]
- [  1.37895554E-04,   6.13658449E-04,  -1.31935694E-05, ]
- [ -1.37910852E-04,   6.13638253E-04,  -1.32082554E-05, ]
- [  1.37908540E-04,   6.13608467E-04,  -1.31830669E-05, ]
- [ -1.37856468E-04,   6.13622757E-04,  -1.32004850E-05, ]
- [  1.37856468E-04,   6.13622757E-04,   1.32004850E-05, ]
- [ -1.37908540E-04,   6.13608467E-04,   1.31830669E-05, ]
- [  1.37910852E-04,   6.13638253E-04,   1.32082554E-05, ]
- [ -1.37895554E-04,   6.13658449E-04,   1.31935694E-05, ]
force_length_stats: {min:   6.29053185E-04, max:   1.22731008E-03, mean:   8.28469963E-04, }
...

 Integrated electronic density in atomic spheres:
 ------------------------------------------------
 Atom  Sphere_radius  Integrated_density
    1        2.00000          8.32946753
    2        2.00000          8.32018188
    3        2.00000          8.32107640
    4        2.00000          8.31717890
    5        2.00000          6.36766467
    6        2.00000          6.36616728
    7        2.00000          6.37459534
    8        2.00000          6.36495401
    9        2.00000          6.36495401
   10        2.00000          6.37459534
   11        2.00000          6.36616728
   12        2.00000          6.36766467
================================================================================
 
 ----iterations are completed or convergence reached----
 
 Mean square residual over all n,k,spin=   12.866E-15; max=  38.872E-15
 reduced coordinates (array xred) for   12 atoms
       0.000000000000      0.008252330000      0.000000000000
       0.500000000000      0.508250680000      0.000000000000
       0.000000000000      0.508259270000      0.500000000000
       0.500000000000      0.008253510000      0.500000000000
       0.256273330000      0.249888530000      0.201201660000
       0.243727520000      0.249881590000      0.701202710000
       0.756262590000      0.749882140000      0.201208080000
       0.743740210000      0.749898370000      0.701210500000
       0.256259790000      0.749898370000      0.298789500000
       0.243737410000      0.749882140000      0.798791920000
       0.756272480000      0.249881590000      0.298797290000
       0.743726670000      0.249888530000      0.798798340000
 rms dE/dt=  4.8462E-03; max dE/dt=  1.1744E-02; dE/dt below (all hartree)
    1       0.000000000000      0.011743840371      0.000000000000
    2       0.000000000000      0.011744230545      0.000000000000
    3       0.000000000000      0.011744416343      0.000000000000
    4       0.000000000000      0.011743408630      0.000000000000
    5      -0.001322616031     -0.005913110901      0.000126545244
    6       0.001322762761     -0.005912917197      0.000126686104
    7      -0.001322740591     -0.005912631505      0.000126444509
    8       0.001322241145     -0.005912768560      0.000126611574
    9      -0.001322241145     -0.005912768560     -0.000126611574
   10       0.001322740591     -0.005912631505     -0.000126444509
   11      -0.001322762761     -0.005912917197     -0.000126686104
   12       0.001322616031     -0.005913110901     -0.000126545244
 
 cartesian coordinates (angstrom) at end:
    1      0.00000000000000     0.04188526207344     0.00000000000000
    2      2.53778400000000     2.57966088738624     0.00000000000000
    3      0.00000000000000     2.57970448651536     2.53778400000000
    4      2.53778400000000     0.04189125124368     2.53778400000000
    5      1.30073271300144     1.26832622643504     1.02121270704288
    6      1.23705560123136     1.26829100199312     3.55900203638928
    7      3.83846220140112     3.80607779355552     1.02124529218944
    8      3.77490401018928     3.80616017002416     3.55904157506400
    9      1.30066398981072     3.80616017002416     1.51652642493600
   10      1.23710579859888     3.80607779355552     4.05432270781056
   11      3.83851239876864     1.26829100199312     1.51656596361072
   12      3.77483528699856     1.26832622643504     4.05435529295712
 
 cartesian forces (hartree/bohr) at end:
    1      0.00000000000000    -0.00122725003389     0.00000000000000
    2      0.00000000000000    -0.00122729071331     0.00000000000000
    3      0.00000000000000    -0.00122731008454     0.00000000000000
    4      0.00000000000000    -0.00122720502069     0.00000000000000
    5      0.00013789555358     0.00061365844894    -0.00001319356943
    6     -0.00013791085163     0.00061363825344    -0.00001320825544
    7      0.00013790854019     0.00061360846725    -0.00001318306689
    8     -0.00013785646810     0.00061362275659    -0.00001320048503
    9      0.00013785646810     0.00061362275659     0.00001320048503
   10     -0.00013790854019     0.00061360846725     0.00001318306689
   11      0.00013791085163     0.00061363825344     0.00001320825544
   12     -0.00013789555358     0.00061365844894     0.00001319356943
 frms,max,avg= 5.0526587E-04 1.2273101E-03   0.000E+00  2.841E-06  0.000E+00 h/b
 
 cartesian forces (eV/Angstrom) at end:
    1      0.00000000000000    -0.06310772879538     0.00000000000000
    2      0.00000000000000    -0.06310982061516     0.00000000000000
    3      0.00000000000000    -0.06311081672368     0.00000000000000
    4      0.00000000000000    -0.06310541412358     0.00000000000000
    5      0.00709087386995     0.03155558353973    -0.00067844056091
    6     -0.00709166052716     0.03155454504546    -0.00067919574597
    7      0.00709154166841     0.03155301337808    -0.00067790049845
    8     -0.00708886401428     0.03155374816563    -0.00067879617534
    9      0.00708886401428     0.03155374816563     0.00067879617534
   10     -0.00709154166841     0.03155301337808     0.00067790049845
   11      0.00709166052716     0.03155454504546     0.00067919574597
   12     -0.00709087386995     0.03155558353973     0.00067844056091
 frms,max,avg= 2.5981814E-02 6.3110817E-02   0.000E+00  1.461E-04  0.000E+00 e/A
 length scales=  9.591433488838  9.591433488838  9.591433488838 bohr
              =  5.075568000000  5.075568000000  5.075568000000 angstroms
 prteigrs : about to open file o_DS2_EIG
 Fermi (or HOMO) energy (hartree) =   0.27702   Average Vxc (hartree)=  -0.44600
 Eigenvalues (hartree) for nkpt= 112  k points:
 kpt#   1, nband= 48, wtk=  0.00463, kpt=  0.0000  0.0000  0.0000 (reduced coord)
  -1.94356   -1.94289   -1.94287   -1.94286   -0.80518   -0.80516   -0.80483   -0.79335
  -0.79305   -0.79273   -0.79246   -0.79147   -0.79141   -0.78849   -0.78691   -0.78690
  -0.39509   -0.33820   -0.32915   -0.32889   -0.31890   -0.31597   -0.31575   -0.29720
   0.06037    0.06043    0.07180    0.09590    0.10272    0.10292    0.16296    0.16415
   0.16650    0.16767    0.17257    0.17259    0.22244    0.22380    0.22723    0.22862
   0.24819    0.25079    0.25478    0.25527    0.25762    0.26614    0.26740    0.27518
 prteigrs : prtvol=0 or 1, do not print more k-points.
 

--- !EnergyTerms
iteration_state     : {dtset: 2, }
comment             : Components of total free energy in Hartree
kinetic             :  1.46202962819920E+02
hartree             :  5.59381497429400E+01
xc                  : -9.09064827933757E+01
Ewald energy        : -2.70140830299184E+02
psp_core            :  1.49595106529080E+01
local_psp           : -2.05573288635199E+02
non_local_psp       : -9.11412865105711E+00
electric            :  0.00000000000000E+00
kohn_sham           : -3.58634107163048E+02
total_energy        : -3.58634107163048E+02
total_energy_eV     : -9.75893035530208E+03
band_energy         : -3.10999385234732E+01
...

 
Constant unreduced E calculation  - final values:
 (a. u.)
       E:   0.000000000E+00   0.000000000E+00   0.000000000E+00  
       P:   3.779892796E-14   1.680121410E-03   1.190425056E-13
 
    ebar:   0.000000000E+00   0.000000000E+00   0.000000000E+00  
    pbar:   4.555886188E-12   2.025042068E-01   1.434813462E-11
 
       e:   0.000000000E+00   0.000000000E+00   0.000000000E+00  
       p:   3.477334920E-12   1.545637711E-01   1.095138629E-11
 
 (S.I.), that is V/m for E, and C/m^2 for P
-      E:   0.000000000E+00   0.000000000E+00   0.000000000E+00  
       P:   2.162656647E-12   9.612774574E-02   6.810988562E-12  
 
 
 Please check: COMMENT - 
  As a rough estimate,
  to be below the critical field, the bandgap of your system
  should be larger than    0.00 eV.
 
--------------------------------------------------------------------------------
 
 Cartesian components of stress tensor (hartree/bohr^3)
  sigma(1 1)= -1.76316843E-04  sigma(3 2)=  0.00000000E+00
  sigma(2 2)= -1.78246399E-04  sigma(3 1)= -2.56599987E-09
  sigma(3 3)= -4.78591076E-04  sigma(2 1)=  0.00000000E+00
 
-Cartesian components of stress tensor (GPa)         [Pressure=  8.1707E+00 GPa]
- sigma(1 1)= -5.18741974E+00  sigma(3 2)=  0.00000000E+00
- sigma(2 2)= -5.24418922E+00  sigma(3 1)= -7.54943099E-05
- sigma(3 3)= -1.40806332E+01  sigma(2 1)=  0.00000000E+00
 
== END DATASET(S) ==============================================================
================================================================================
  
 -outvars: echo values of variables after computation  --------
            acell      9.5914334888E+00  9.5914334888E+00  9.5914334888E+00 Bohr
              amu      1.78490000E+02  1.59994000E+01
         berryopt1         -1
         berryopt2          4
          chkprim           0
             ecut      2.50000000E+01 Hartree
           ecutsm      5.00000000E-01 Hartree
           etotal1    -3.5863410716E+02
           etotal2    -3.5863410716E+02
            fcart1     0.0000000000E+00 -1.2274250093E-03 -7.0586078938E-22
                       0.0000000000E+00 -1.2271742092E-03 -7.0586078938E-22
                       0.0000000000E+00 -1.2271975752E-03 -7.0586078938E-22
                       0.0000000000E+00 -1.2273267550E-03 -7.0586078938E-22
                       1.3794442240E-04  6.1366014775E-04 -1.3131874110E-05
                      -1.3786201921E-04  6.1364660233E-04 -1.3360086777E-05
                       1.3791632342E-04  6.1363588588E-04 -1.3160968023E-05
                      -1.3783836110E-04  6.1361913833E-04 -1.3379768921E-05
                       1.3783836110E-04  6.1361913833E-04  1.3379768921E-05
                      -1.3791632342E-04  6.1363588588E-04  1.3160968023E-05
                       1.3786201921E-04  6.1364660233E-04  1.3360086777E-05
                      -1.3794442240E-04  6.1366014775E-04  1.3131874110E-05
            fcart2     0.0000000000E+00 -1.2272500339E-03  0.0000000000E+00
                       0.0000000000E+00 -1.2272907133E-03  0.0000000000E+00
                       0.0000000000E+00 -1.2273100845E-03  0.0000000000E+00
                       0.0000000000E+00 -1.2272050207E-03  0.0000000000E+00
                       1.3789555358E-04  6.1365844894E-04 -1.3193569429E-05
                      -1.3791085163E-04  6.1363825344E-04 -1.3208255441E-05
                       1.3790854019E-04  6.1360846725E-04 -1.3183066885E-05
                      -1.3785646810E-04  6.1362275659E-04 -1.3200485029E-05
                       1.3785646810E-04  6.1362275659E-04  1.3200485029E-05
                      -1.3790854019E-04  6.1360846725E-04  1.3183066885E-05
                       1.3791085163E-04  6.1363825344E-04  1.3208255441E-05
                      -1.3789555358E-04  6.1365844894E-04  1.3193569429E-05
-          fftalg         512
           getwfk1          0
           getwfk2          1
           istwfk        1    0    0    1    0    0    0    0    0    0
                         0    0    0    0    0    0    1    0    0    1
                         0    0    0    0    0    0    0    0    0    0
                         0    0    0    0    0    0    0    0    0    0
                         0    0    0    0    0    0    0    0    0    0
                       outvar_i_n : Printing only first  50 k-points.
              ixc          11
           jdtset        1    2
              kpt      0.00000000E+00  0.00000000E+00  0.00000000E+00
                       1.66666667E-01  0.00000000E+00  0.00000000E+00
                       3.33333333E-01  0.00000000E+00  0.00000000E+00
                       5.00000000E-01  0.00000000E+00  0.00000000E+00
                       0.00000000E+00  1.66666667E-01  0.00000000E+00
                       1.66666667E-01  1.66666667E-01  0.00000000E+00
                       3.33333333E-01  1.66666667E-01  0.00000000E+00
                       5.00000000E-01  1.66666667E-01  0.00000000E+00
                      -3.33333333E-01  1.66666667E-01  0.00000000E+00
                      -1.66666667E-01  1.66666667E-01  0.00000000E+00
                       0.00000000E+00  3.33333333E-01  0.00000000E+00
                       1.66666667E-01  3.33333333E-01  0.00000000E+00
                       3.33333333E-01  3.33333333E-01  0.00000000E+00
                       5.00000000E-01  3.33333333E-01  0.00000000E+00
                      -3.33333333E-01  3.33333333E-01  0.00000000E+00
                      -1.66666667E-01  3.33333333E-01  0.00000000E+00
                       0.00000000E+00  5.00000000E-01  0.00000000E+00
                       1.66666667E-01  5.00000000E-01  0.00000000E+00
                       3.33333333E-01  5.00000000E-01  0.00000000E+00
                       5.00000000E-01  5.00000000E-01  0.00000000E+00
                       0.00000000E+00  0.00000000E+00  1.66666667E-01
                       1.66666667E-01  0.00000000E+00  1.66666667E-01
                       3.33333333E-01  0.00000000E+00  1.66666667E-01
                       5.00000000E-01  0.00000000E+00  1.66666667E-01
                      -3.33333333E-01  0.00000000E+00  1.66666667E-01
                      -1.66666667E-01  0.00000000E+00  1.66666667E-01
                       0.00000000E+00  1.66666667E-01  1.66666667E-01
                       1.66666667E-01  1.66666667E-01  1.66666667E-01
                       3.33333333E-01  1.66666667E-01  1.66666667E-01
                       5.00000000E-01  1.66666667E-01  1.66666667E-01
                      -3.33333333E-01  1.66666667E-01  1.66666667E-01
                      -1.66666667E-01  1.66666667E-01  1.66666667E-01
                       0.00000000E+00  3.33333333E-01  1.66666667E-01
                       1.66666667E-01  3.33333333E-01  1.66666667E-01
                       3.33333333E-01  3.33333333E-01  1.66666667E-01
                       5.00000000E-01  3.33333333E-01  1.66666667E-01
                      -3.33333333E-01  3.33333333E-01  1.66666667E-01
                      -1.66666667E-01  3.33333333E-01  1.66666667E-01
                       0.00000000E+00  5.00000000E-01  1.66666667E-01
                       1.66666667E-01  5.00000000E-01  1.66666667E-01
                       3.33333333E-01  5.00000000E-01  1.66666667E-01
                       5.00000000E-01  5.00000000E-01  1.66666667E-01
                      -3.33333333E-01  5.00000000E-01  1.66666667E-01
                      -1.66666667E-01  5.00000000E-01  1.66666667E-01
                       0.00000000E+00 -3.33333333E-01  1.66666667E-01
                       1.66666667E-01 -3.33333333E-01  1.66666667E-01
                       3.33333333E-01 -3.33333333E-01  1.66666667E-01
                       5.00000000E-01 -3.33333333E-01  1.66666667E-01
                      -3.33333333E-01 -3.33333333E-01  1.66666667E-01
                      -1.66666667E-01 -3.33333333E-01  1.66666667E-01
                       outvar_i_n : Printing only first  50 k-points.
           kptopt           2
         kptrlatt        6    0    0      0    6    0      0    0    6
          kptrlen      5.75486009E+01
P           mkmem           4
            natom          12
            nband          48
           ndtset           2
            ngfft          45      45      45
             nkpt         112
            nstep         100
             nsym           2
           ntypat           2
              occ      2.000000  2.000000  2.000000  2.000000  2.000000  2.000000
                       2.000000  2.000000  2.000000  2.000000  2.000000  2.000000
                       2.000000  2.000000  2.000000  2.000000  2.000000  2.000000
                       2.000000  2.000000  2.000000  2.000000  2.000000  2.000000
                       2.000000  2.000000  2.000000  2.000000  2.000000  2.000000
                       2.000000  2.000000  2.000000  2.000000  2.000000  2.000000
                       2.000000  2.000000  2.000000  2.000000  2.000000  2.000000
                       2.000000  2.000000  2.000000  2.000000  2.000000  2.000000
        pawecutdg      2.50000000E+01 Hartree
         pawxcdev           0
            rfdir1          1       1       1
            rfdir2          0       0       0
          spgroup           3
           strten1    -1.7631435320E-04 -1.7824389761E-04 -4.7858901450E-04
                       0.0000000000E+00 -2.5935359630E-09  0.0000000000E+00
           strten2    -1.7631684282E-04 -1.7824639854E-04 -4.7859107583E-04
                       0.0000000000E+00 -2.5659998711E-09  0.0000000000E+00
        symmorphi           0
           symrel      1  0  0   0  1  0   0  0  1      -1  0  0   0  1  0   0  0 -1
           toldfe      1.00000000E-10 Hartree
           tolmxf      1.00000000E-05
           tsmear      4.00000000E-02 Hartree
            typat      1  1  1  1  2  2  2  2  2  2  2  2
              wtk        0.00463    0.00926    0.00926    0.00463    0.00926    0.00926
                         0.00926    0.00926    0.00926    0.00926    0.00926    0.00926
                         0.00926    0.00926    0.00926    0.00926    0.00463    0.00926
                         0.00926    0.00463    0.00926    0.00926    0.00926    0.00926
                         0.00926    0.00926    0.00926    0.00926    0.00926    0.00926
                         0.00926    0.00926    0.00926    0.00926    0.00926    0.00926
                         0.00926    0.00926    0.00926    0.00926    0.00926    0.00926
                         0.00926    0.00926    0.00926    0.00926    0.00926    0.00926
                         0.00926    0.00926
                       outvars : Printing only first  50 k-points.
           xangst      0.0000000000E+00  4.1885262073E-02  0.0000000000E+00
                       2.5377840000E+00  2.5796608874E+00  0.0000000000E+00
                       0.0000000000E+00  2.5797044865E+00  2.5377840000E+00
                       2.5377840000E+00  4.1891251244E-02  2.5377840000E+00
                       1.3007327130E+00  1.2683262264E+00  1.0212127070E+00
                       1.2370556012E+00  1.2682910020E+00  3.5590020364E+00
                       3.8384622014E+00  3.8060777936E+00  1.0212452922E+00
                       3.7749040102E+00  3.8061601700E+00  3.5590415751E+00
                       1.3006639898E+00  3.8061601700E+00  1.5165264249E+00
                       1.2371057986E+00  3.8060777936E+00  4.0543227078E+00
                       3.8385123988E+00  1.2682910020E+00  1.5165659636E+00
                       3.7748352870E+00  1.2683262264E+00  4.0543552930E+00
            xcart      0.0000000000E+00  7.9151674323E-02  0.0000000000E+00
                       4.7957167444E+00  4.8748525929E+00  0.0000000000E+00
                       0.0000000000E+00  4.8749349833E+00  4.7957167444E+00
                       4.7957167444E+00  7.9162992214E-02  4.7957167444E+00
                       2.4580285997E+00  2.3967892151E+00  1.9298123397E+00
                       2.3376962975E+00  2.3967226506E+00  6.7255391552E+00
                       7.2536423321E+00  7.1924446703E+00  1.9298739167E+00
                       7.1335347572E+00  7.1926003392E+00  6.7256138724E+00
                       2.4578987316E+00  7.1926003392E+00  2.8658196164E+00
                       2.3377911568E+00  7.1924446703E+00  7.6615595721E+00
                       7.2537371914E+00  2.3967226506E+00  2.8658943337E+00
                       7.1334048892E+00  2.3967892151E+00  7.6616211491E+00
             xred      0.0000000000E+00  8.2523300000E-03  0.0000000000E+00
                       5.0000000000E-01  5.0825068000E-01  0.0000000000E+00
                       0.0000000000E+00  5.0825927000E-01  5.0000000000E-01
                       5.0000000000E-01  8.2535100000E-03  5.0000000000E-01
                       2.5627333000E-01  2.4988853000E-01  2.0120166000E-01
                       2.4372752000E-01  2.4988159000E-01  7.0120271000E-01
                       7.5626259000E-01  7.4988214000E-01  2.0120808000E-01
                       7.4374021000E-01  7.4989837000E-01  7.0121050000E-01
                       2.5625979000E-01  7.4989837000E-01  2.9878950000E-01
                       2.4373741000E-01  7.4988214000E-01  7.9879192000E-01
                       7.5627248000E-01  2.4988159000E-01  2.9879729000E-01
                       7.4372667000E-01  2.4988853000E-01  7.9879834000E-01
            znucl       72.00000    8.00000
 
================================================================================


- Timing analysis has been suppressed with timopt=0



================================================================================

 Suggested references for the acknowledgment of ABINIT usage.

 The users of ABINIT have little formal obligations with respect to the ABINIT group
 (those specified in the GNU General Public License, http://www.gnu.org/copyleft/gpl.txt).
 However, it is common practice in the scientific literature,
 to acknowledge the efforts of people that have made the research possible.
 In this spirit, please find below suggested citations of work written by ABINIT developers,
 corresponding to implementations inside of ABINIT that you have used in the present run.
 Note also that it will be of great value to readers of publications presenting these results,
 to read papers enabling them to understand the theoretical formalism and details
 of the ABINIT implementation.
 For information on why they are suggested, see also https://docs.abinit.org/theory/acknowledgments.
-
- [1] The Abinit project: Impact, environment and recent developments.
- Computer Phys. Comm. 248, 107042 (2020).
- X.Gonze, B. Amadon, G. Antonius, F.Arnardi, L.Baguet, J.-M.Beuken,
- J.Bieder, F.Bottin, J.Bouchet, E.Bousquet, N.Brouwer, F.Bruneval,
- G.Brunin, T.Cavignac, J.-B. Charraud, Wei Chen, M.Cote, S.Cottenier,
- J.Denier, G.Geneste, Ph.Ghosez, M.Giantomassi, Y.Gillet, O.Gingras,
- D.R.Hamann, G.Hautier, Xu He, N.Helbig, N.Holzwarth, Y.Jia, F.Jollet,
- W.Lafargue-Dit-Hauret, K.Lejaeghere, M.A.L.Marques, A.Martin, C.Martins,
- H.P.C. Miranda, F.Naccarato, K. Persson, G.Petretto, V.Planes, Y.Pouillon,
- S.Prokhorenko, F.Ricci, G.-M.Rignanese, A.H.Romero, M.M.Schmitt, M.Torrent,
- M.J.van Setten, B.Van Troeye, M.J.Verstraete, G.Zerah and J.W.Zwanzig
- Comment: the fifth generic paper describing the ABINIT project.
- Note that a version of this paper, that is not formatted for Computer Phys. Comm. 
- is available at https://www.abinit.org/sites/default/files/ABINIT20.pdf .
- The licence allows the authors to put it on the Web.
- DOI and bibtex: see https://docs.abinit.org/theory/bibliography/#gonze2020
-
- [2] Optimized norm-conserving Vanderbilt pseudopotentials.
- D.R. Hamann, Phys. Rev. B 88, 085117 (2013).
- Comment: Some pseudopotential generated using the ONCVPSP code were used.
- DOI and bibtex: see https://docs.abinit.org/theory/bibliography/#hamann2013
-
- [3] ABINIT: Overview, and focus on selected capabilities
- J. Chem. Phys. 152, 124102 (2020).
- A. Romero, D.C. Allan, B. Amadon, G. Antonius, T. Applencourt, L.Baguet,
- J.Bieder, F.Bottin, J.Bouchet, E.Bousquet, F.Bruneval,
- G.Brunin, D.Caliste, M.Cote,
- J.Denier, C. Dreyer, Ph.Ghosez, M.Giantomassi, Y.Gillet, O.Gingras,
- D.R.Hamann, G.Hautier, F.Jollet, G. Jomard,
- A.Martin, 
- H.P.C. Miranda, F.Naccarato, G.Petretto, N.A. Pike, V.Planes,
- S.Prokhorenko, T. Rangel, F.Ricci, G.-M.Rignanese, M.Royo, M.Stengel, M.Torrent,
- M.J.van Setten, B.Van Troeye, M.J.Verstraete, J.Wiktor, J.W.Zwanziger, and X.Gonze.
- Comment: a global overview of ABINIT, with focus on selected capabilities .
- Note that a version of this paper, that is not formatted for J. Chem. Phys 
- is available at https://www.abinit.org/sites/default/files/ABINIT20_JPC.pdf .
- The licence allows the authors to put it on the Web.
- DOI and bibtex: see https://docs.abinit.org/theory/bibliography/#romero2020
-
- [4] Recent developments in the ABINIT software package.
- Computer Phys. Comm. 205, 106 (2016).
- X.Gonze, F.Jollet, F.Abreu Araujo, D.Adams, B.Amadon, T.Applencourt,
- C.Audouze, J.-M.Beuken, J.Bieder, A.Bokhanchuk, E.Bousquet, F.Bruneval
- D.Caliste, M.Cote, F.Dahm, F.Da Pieve, M.Delaveau, M.Di Gennaro,
- B.Dorado, C.Espejo, G.Geneste, L.Genovese, A.Gerossier, M.Giantomassi,
- Y.Gillet, D.R.Hamann, L.He, G.Jomard, J.Laflamme Janssen, S.Le Roux,
- A.Levitt, A.Lherbier, F.Liu, I.Lukacevic, A.Martin, C.Martins,
- M.J.T.Oliveira, S.Ponce, Y.Pouillon, T.Rangel, G.-M.Rignanese,
- A.H.Romero, B.Rousseau, O.Rubel, A.A.Shukri, M.Stankovski, M.Torrent,
- M.J.Van Setten, B.Van Troeye, M.J.Verstraete, D.Waroquier, J.Wiktor,
- B.Xu, A.Zhou, J.W.Zwanziger.
- Comment: the fourth generic paper describing the ABINIT project.
- Note that a version of this paper, that is not formatted for Computer Phys. Comm. 
- is available at https://www.abinit.org/sites/default/files/ABINIT16.pdf .
- The licence allows the authors to put it on the Web.
- DOI and bibtex: see https://docs.abinit.org/theory/bibliography/#gonze2016
-
- And optionally:
-
- [5] ABINIT: First-principles approach of materials and nanosystem properties.
- Computer Phys. Comm. 180, 2582-2615 (2009).
- X. Gonze, B. Amadon, P.-M. Anglade, J.-M. Beuken, F. Bottin, P. Boulanger, F. Bruneval,
- D. Caliste, R. Caracas, M. Cote, T. Deutsch, L. Genovese, Ph. Ghosez, M. Giantomassi
- S. Goedecker, D.R. Hamann, P. Hermet, F. Jollet, G. Jomard, S. Leroux, M. Mancini, S. Mazevet,
- M.J.T. Oliveira, G. Onida, Y. Pouillon, T. Rangel, G.-M. Rignanese, D. Sangalli, R. Shaltaf,
- M. Torrent, M.J. Verstraete, G. Zerah, J.W. Zwanziger
- Comment: the third generic paper describing the ABINIT project.
- Note that a version of this paper, that is not formatted for Computer Phys. Comm. 
- is available at https://www.abinit.org/sites/default/files/ABINIT_CPC_v10.pdf .
- The licence allows the authors to put it on the Web.
- DOI and bibtex: see https://docs.abinit.org/theory/bibliography/#gonze2009
-
- Proc.   0 individual time (sec): cpu=        106.6  wall=        107.8
 
================================================================================
 
 Calculation completed.
.Delivered   0 WARNINGs and   2 COMMENTs to log file.
+Overall time at end (sec) : cpu=       3432.2  wall=       3447.5
