
.Version 9.4.2 of ABINIT 
.(MPI version, prepared for a x86_64_linux_intel19.0 computer) 

.Copyright (C) 1998-2021 ABINIT group . 
 ABINIT comes with ABSOLUTELY NO WARRANTY.
 It is free software, and you are welcome to redistribute it
 under certain conditions (GNU General Public License,
 see ~abinit/COPYING or http://www.gnu.org/copyleft/gpl.txt).

 ABINIT is a project of the Universite Catholique de Louvain,
 Corning Inc. and other collaborators, see ~abinit/doc/developers/contributors.txt .
 Please read https://docs.abinit.org/theory/acknowledgments for suggested
 acknowledgments of the ABINIT effort.
 For more information, see https://www.abinit.org .

.Starting date : Sun 20 Jun 2021.
- ( at 21h22 )
  
- input  file    -> /p/work1/jiahaoz/HfO4/CUBIC_ITERATE/iterone/P0.04/itenoe10
- output file    -> /p/work1/jiahaoz/HfO4/CUBIC_ITERATE/iterone/P0.04/itenoe10.abo
- root for input  files -> i
- root for output files -> o
 
 
 DATASET    1 : space group P2 (#  3); Bravais mP (primitive monocl.)
================================================================================
 Values of the parameters that define the memory need for DATASET  1.
     intxc =       0    ionmov =       0      iscf =       7    lmnmax =       8
     lnmax =       8     mgfft =      45  mpssoang =       4    mqgrid =    3001
     natom =      12  nloc_mem =       1    nspden =       1   nspinor =       1
    nsppol =       1      nsym =       2    n1xccc =    2501    ntypat =       2
    occopt =       1   xclevel =       2
-    mband =          48        mffmem =           1         mkmem =           4
       mpw =        5294          nfft =       91125          nkpt =         112
================================================================================
P This job should need less than                      46.953 Mbytes of memory.
  Rough estimation (10% accuracy) of disk space for files :
_ WF disk file :    434.275 Mbytes ; DEN or POT disk file :      0.697 Mbytes.
================================================================================
 
 
 DATASET    2 : space group P2 (#  3); Bravais mP (primitive monocl.)
================================================================================
 Values of the parameters that define the memory need for DATASET  2.
     intxc =       0    ionmov =       0      iscf =       7    lmnmax =       8
     lnmax =       8     mgfft =      45  mpssoang =       4    mqgrid =    3001
     natom =      12  nloc_mem =       1    nspden =       1   nspinor =       1
    nsppol =       1      nsym =       2    n1xccc =    2501    ntypat =       2
    occopt =       1   xclevel =       2
-    mband =          48        mffmem =           1         mkmem =           4
       mpw =        5294          nfft =       91125          nkpt =         112
================================================================================
P This job should need less than                      46.953 Mbytes of memory.
  Rough estimation (10% accuracy) of disk space for files :
_ WF disk file :    434.275 Mbytes ; DEN or POT disk file :      0.697 Mbytes.
================================================================================
 
--------------------------------------------------------------------------------
------------- Echo of variables that govern the present computation ------------
--------------------------------------------------------------------------------
-
- outvars: echo of selected default values                                      
-   iomode0 =  0 , fftalg0 =512 , wfoptalg0 =  0
-
- outvars: echo of global parameters not present in the input file              
-  max_nthreads =    0
-
 -outvars: echo values of preprocessed input variables --------
            acell      9.5914334888E+00  9.5914334888E+00  9.5914334888E+00 Bohr
              amu      1.78490000E+02  1.59994000E+01
         berryopt1         -1
         berryopt2          4
          chkprim           0
             ecut      2.50000000E+01 Hartree
           ecutsm      5.00000000E-01 Hartree
-          fftalg         512
           getwfk1          0
           getwfk2          1
           istwfk        1    0    0    1    0    0    0    0    0    0
                         0    0    0    0    0    0    1    0    0    1
                         0    0    0    0    0    0    0    0    0    0
                         0    0    0    0    0    0    0    0    0    0
                         0    0    0    0    0    0    0    0    0    0
                       outvar_i_n : Printing only first  50 k-points.
              ixc          11
           jdtset        1    2
              kpt      0.00000000E+00  0.00000000E+00  0.00000000E+00
                       1.66666667E-01  0.00000000E+00  0.00000000E+00
                       3.33333333E-01  0.00000000E+00  0.00000000E+00
                       5.00000000E-01  0.00000000E+00  0.00000000E+00
                       0.00000000E+00  1.66666667E-01  0.00000000E+00
                       1.66666667E-01  1.66666667E-01  0.00000000E+00
                       3.33333333E-01  1.66666667E-01  0.00000000E+00
                       5.00000000E-01  1.66666667E-01  0.00000000E+00
                      -3.33333333E-01  1.66666667E-01  0.00000000E+00
                      -1.66666667E-01  1.66666667E-01  0.00000000E+00
                       0.00000000E+00  3.33333333E-01  0.00000000E+00
                       1.66666667E-01  3.33333333E-01  0.00000000E+00
                       3.33333333E-01  3.33333333E-01  0.00000000E+00
                       5.00000000E-01  3.33333333E-01  0.00000000E+00
                      -3.33333333E-01  3.33333333E-01  0.00000000E+00
                      -1.66666667E-01  3.33333333E-01  0.00000000E+00
                       0.00000000E+00  5.00000000E-01  0.00000000E+00
                       1.66666667E-01  5.00000000E-01  0.00000000E+00
                       3.33333333E-01  5.00000000E-01  0.00000000E+00
                       5.00000000E-01  5.00000000E-01  0.00000000E+00
                       0.00000000E+00  0.00000000E+00  1.66666667E-01
                       1.66666667E-01  0.00000000E+00  1.66666667E-01
                       3.33333333E-01  0.00000000E+00  1.66666667E-01
                       5.00000000E-01  0.00000000E+00  1.66666667E-01
                      -3.33333333E-01  0.00000000E+00  1.66666667E-01
                      -1.66666667E-01  0.00000000E+00  1.66666667E-01
                       0.00000000E+00  1.66666667E-01  1.66666667E-01
                       1.66666667E-01  1.66666667E-01  1.66666667E-01
                       3.33333333E-01  1.66666667E-01  1.66666667E-01
                       5.00000000E-01  1.66666667E-01  1.66666667E-01
                      -3.33333333E-01  1.66666667E-01  1.66666667E-01
                      -1.66666667E-01  1.66666667E-01  1.66666667E-01
                       0.00000000E+00  3.33333333E-01  1.66666667E-01
                       1.66666667E-01  3.33333333E-01  1.66666667E-01
                       3.33333333E-01  3.33333333E-01  1.66666667E-01
                       5.00000000E-01  3.33333333E-01  1.66666667E-01
                      -3.33333333E-01  3.33333333E-01  1.66666667E-01
                      -1.66666667E-01  3.33333333E-01  1.66666667E-01
                       0.00000000E+00  5.00000000E-01  1.66666667E-01
                       1.66666667E-01  5.00000000E-01  1.66666667E-01
                       3.33333333E-01  5.00000000E-01  1.66666667E-01
                       5.00000000E-01  5.00000000E-01  1.66666667E-01
                      -3.33333333E-01  5.00000000E-01  1.66666667E-01
                      -1.66666667E-01  5.00000000E-01  1.66666667E-01
                       0.00000000E+00 -3.33333333E-01  1.66666667E-01
                       1.66666667E-01 -3.33333333E-01  1.66666667E-01
                       3.33333333E-01 -3.33333333E-01  1.66666667E-01
                       5.00000000E-01 -3.33333333E-01  1.66666667E-01
                      -3.33333333E-01 -3.33333333E-01  1.66666667E-01
                      -1.66666667E-01 -3.33333333E-01  1.66666667E-01
                       outvar_i_n : Printing only first  50 k-points.
           kptopt           2
         kptrlatt        6    0    0      0    6    0      0    0    6
          kptrlen      5.75486009E+01
P           mkmem           4
            natom          12
            nband          48
           ndtset           2
            ngfft          45      45      45
             nkpt         112
            nstep         100
             nsym           2
           ntypat           2
              occ      2.000000  2.000000  2.000000  2.000000  2.000000  2.000000
                       2.000000  2.000000  2.000000  2.000000  2.000000  2.000000
                       2.000000  2.000000  2.000000  2.000000  2.000000  2.000000
                       2.000000  2.000000  2.000000  2.000000  2.000000  2.000000
                       2.000000  2.000000  2.000000  2.000000  2.000000  2.000000
                       2.000000  2.000000  2.000000  2.000000  2.000000  2.000000
                       2.000000  2.000000  2.000000  2.000000  2.000000  2.000000
                       2.000000  2.000000  2.000000  2.000000  2.000000  2.000000
        pawecutdg      2.50000000E+01 Hartree
         pawxcdev           0
            rfdir1          1       1       1
            rfdir2          0       0       0
          spgroup           3
        symmorphi           0
           symrel      1  0  0   0  1  0   0  0  1      -1  0  0   0  1  0   0  0 -1
           toldfe      1.00000000E-10 Hartree
           tolmxf      1.00000000E-05
           tsmear      4.00000000E-02 Hartree
            typat      1  1  1  1  2  2  2  2  2  2  2  2
              wtk        0.00463    0.00926    0.00926    0.00463    0.00926    0.00926
                         0.00926    0.00926    0.00926    0.00926    0.00926    0.00926
                         0.00926    0.00926    0.00926    0.00926    0.00463    0.00926
                         0.00926    0.00463    0.00926    0.00926    0.00926    0.00926
                         0.00926    0.00926    0.00926    0.00926    0.00926    0.00926
                         0.00926    0.00926    0.00926    0.00926    0.00926    0.00926
                         0.00926    0.00926    0.00926    0.00926    0.00926    0.00926
                         0.00926    0.00926    0.00926    0.00926    0.00926    0.00926
                         0.00926    0.00926
                       outvars : Printing only first  50 k-points.
           xangst      0.0000000000E+00  1.6746785860E-02  0.0000000000E+00
                       2.5377840000E+00  2.5545277913E+00  0.0000000000E+00
                       0.0000000000E+00  2.5545544888E+00  2.5377840000E+00
                       2.5377840000E+00  1.6751303116E-02  2.5377840000E+00
                       1.2816842586E+00  1.2687278054E+00  1.0230435152E+00
                       1.2560500516E+00  1.2685481303E+00  3.5608313726E+00
                       3.8193345681E+00  3.8063756279E+00  1.0230681317E+00
                       3.7940800137E+00  3.8065864670E+00  3.5608619275E+00
                       1.2814879863E+00  3.8065864670E+00  1.5147060725E+00
                       1.2562334319E+00  3.8063756279E+00  4.0524998683E+00
                       3.8195179484E+00  1.2685481303E+00  1.5147366274E+00
                       3.7938837414E+00  1.2687278054E+00  4.0525244848E+00
            xcart      0.0000000000E+00  3.1646838882E-02  0.0000000000E+00
                       4.7957167444E+00  4.8273579244E+00  0.0000000000E+00
                       0.0000000000E+00  4.8274083753E+00  4.7957167444E+00
                       4.7957167444E+00  3.1655375258E-02  4.7957167444E+00
                       2.4220322375E+00  2.3975480893E+00  1.9332720657E+00
                       2.3735906068E+00  2.3972085526E+00  6.7289960996E+00
                       7.2174963436E+00  7.1930074956E+00  1.9333185842E+00
                       7.1697721521E+00  7.1934059237E+00  6.7290538400E+00
                       2.4216613368E+00  7.1934059237E+00  2.8623796488E+00
                       2.3739371453E+00  7.1930074956E+00  7.6581149047E+00
                       7.2178428821E+00  2.3972085526E+00  2.8624373892E+00
                       7.1694012513E+00  2.3975480893E+00  7.6581614231E+00
             xred      0.0000000000E+00  3.2994900000E-03  0.0000000000E+00
                       5.0000000000E-01  5.0329890000E-01  0.0000000000E+00
                       0.0000000000E+00  5.0330416000E-01  5.0000000000E-01
                       5.0000000000E-01  3.3003800000E-03  5.0000000000E-01
                       2.5252036000E-01  2.4996765000E-01  2.0156237000E-01
                       2.4746985000E-01  2.4993225000E-01  7.0156313000E-01
                       7.5249402000E-01  7.4994082000E-01  2.0156722000E-01
                       7.4751831000E-01  7.4998236000E-01  7.0156915000E-01
                       2.5248169000E-01  7.4998236000E-01  2.9843085000E-01
                       2.4750598000E-01  7.4994082000E-01  7.9843278000E-01
                       7.5253015000E-01  2.4993225000E-01  2.9843687000E-01
                       7.4747964000E-01  2.4996765000E-01  7.9843763000E-01
            znucl       72.00000    8.00000
 
================================================================================
 
 chkinp: Checking input parameters for consistency, jdtset=   1.
 
 chkinp: Checking input parameters for consistency, jdtset=   2.
 
================================================================================
== DATASET  1 ==================================================================
-   mpi_nproc: 32, omp_nthreads: -1 (-1 if OMP is not activated)
-    --> not optimal distribution: autoparal keyword recommended in input file <--
 

--- !DatasetInfo
iteration_state: {dtset: 1, }
dimensions: {natom: 12, nkpt: 112, mband: 48, nsppol: 1, nspinor: 1, nspden: 1, mpw: 5294, }
cutoff_energies: {ecut:  25.0, pawecutdg:  25.0, }
electrons: {nelect:   9.60000000E+01, charge:   0.00000000E+00, occopt:   1.00000000E+00, tsmear:   4.00000000E-02, }
meta: {optdriver: 0, ionmov: 0, optcell: 0, iscf: 7, paral_kgb: 0, }
...

 Exchange-correlation functional for the present dataset will be:
  GGA: Perdew-Burke-Ernzerhof functional - ixc=11
 Citation for XC functional:
  J.P.Perdew, K.Burke, M.Ernzerhof, PRL 77, 3865 (1996)
 
 Real(R)+Recip(G) space primitive vectors, cartesian coordinates (Bohr,Bohr^-1):
 R(1)=  9.5914335  0.0000000  0.0000000  G(1)=  0.1042597  0.0000000  0.0000000
 R(2)=  0.0000000  9.5914335  0.0000000  G(2)=  0.0000000  0.1042597  0.0000000
 R(3)=  0.0000000  0.0000000  9.5914335  G(3)=  0.0000000  0.0000000  0.1042597
 Unit cell volume ucvol=  8.8236964E+02 bohr^3
 Angles (23,13,12)=  9.00000000E+01  9.00000000E+01  9.00000000E+01 degrees
 
 getcut: wavevector=  0.0000  0.0000  0.0000  ngfft=  45  45  45
         ecut(hartree)=     25.000   => boxcut(ratio)=   2.03814
 
--- Pseudopotential description ------------------------------------------------
- pspini: atom type   1  psp file is /p/work1/jiahaoz/HfO4/pbe_s_sr/Hf.psp8
- pspatm: opening atomic psp file    /p/work1/jiahaoz/HfO4/pbe_s_sr/Hf.psp8
- Hf    ONCVPSP  r_core=  1.72  1.72  1.72  2.43
- 72.00000  12.00000    160625                znucl, zion, pspdat
    8   11    3    4       600   0.00000      pspcod,pspxc,lmax,lloc,mmax,r2well
    5.99000000000000    5.40000000000000    0.00000000000000   rchrg,fchrg,qchrg
     nproj     2     2     2     2
     extension_switch     1
  pspatm : epsatm=   21.98649506
         --- l  ekb(1:nproj) -->
             0    5.812335   -0.521211
             1   -3.038329    2.466565
             2    2.060039    0.471534
             3    9.947446    0.353012
 pspatm: atomic psp has been read  and splines computed
 
- pspini: atom type   2  psp file is /p/work1/jiahaoz/HfO4/pbe_s_sr/O.psp8
- pspatm: opening atomic psp file    /p/work1/jiahaoz/HfO4/pbe_s_sr/O.psp8
- O     ONCVPSP  r_core=  1.36  1.46  1.26
-  8.00000   6.00000    151103                znucl, zion, pspdat
    8   11    2    4       600   0.00000      pspcod,pspxc,lmax,lloc,mmax,r2well
    5.99000000000000    4.00000000000000    0.00000000000000   rchrg,fchrg,qchrg
     nproj     2     2     1
     extension_switch     1
  pspatm : epsatm=    6.19401560
         --- l  ekb(1:nproj) -->
             0    5.257212    0.704241
             1   -5.135443   -1.451781
             2   -4.371486
 pspatm: atomic psp has been read  and splines computed
 
   1.31998181E+04                                ecore*ucvol(ha*bohr**3)
--------------------------------------------------------------------------------
 
_setup2: Arith. and geom. avg. npw (full set) are    5268.875    5268.869
  initberry: for direction 1, nkstr =   6, nstr =     36
  initberry: for direction 2, nkstr =   6, nstr =     36
  initberry: for direction 3, nkstr =   6, nstr =     36
 
================================================================================

--- !BeginCycle
iteration_state: {dtset: 1, }
solver: {iscf: 7, nstep: 100, nline: 4, wfoptalg: 0, }
tolerances: {toldfe: 1.00E-10, }
...
 
     iter   Etot(hartree)      deltaE(h)  residm     vres2
 ETOT  1  -357.49706634263    -3.575E+02 3.104E-01 1.114E+03
 ETOT  2  -357.89269958441    -3.956E-01 7.249E-02 1.029E+03
 ETOT  3  -358.60158529234    -7.089E-01 3.725E-03 5.622E+01
 ETOT  4  -358.63414221204    -3.256E-02 1.054E-04 1.306E-01
 ETOT  5  -358.63420814507    -6.593E-05 2.373E-06 6.099E-02
 ETOT  6  -358.63423619498    -2.805E-05 6.039E-07 1.235E-02
 ETOT  7  -358.63424235823    -6.163E-06 6.121E-08 3.416E-04
 ETOT  8  -358.63424240879    -5.056E-08 3.393E-09 2.499E-04
 ETOT  9  -358.63424249117    -8.238E-08 1.367E-09 1.028E-05
 ETOT 10  -358.63424249613    -4.965E-09 2.413E-11 1.420E-07
 ETOT 11  -358.63424249618    -4.917E-11 1.234E-12 2.059E-08
 ETOT 12  -358.63424249619    -8.868E-12 6.198E-14 1.062E-09
 
 At SCF step   12, etot is converged : 
  for the second time, diff in etot=  8.868E-12 < toldfe=  1.000E-10
 
 Computing the polarization (Berry phase) for reciprocal vector:
  0.16667  0.00000  0.00000 (in reduced coordinates)
  0.01738  0.00000  0.00000 (in cartesian coordinates - atomic units)
 Number of strings:    36
 Number of k points in string:    6
 
 Summary of the results
 Electronic Berry phase     9.554940280E-11
            Ionic phase     4.440892099E-16
            Total phase     9.554984689E-11
    Remapping in [-1,1]     9.554984689E-11
 
           Polarization     1.038635007E-12 (a.u. of charge)/bohr^2
           Polarization     5.942525420E-11 C/m^2
 
 
 Computing the polarization (Berry phase) for reciprocal vector:
  0.00000  0.16667  0.00000 (in reduced coordinates)
  0.00000  0.01738  0.00000 (in cartesian coordinates - atomic units)
 Number of strings:    36
 Number of k points in string:    6
 
 Summary of the results
 Electronic Berry phase    -9.442040897E-02
            Ionic phase     1.563121200E-01
            Total phase     6.189171103E-02
    Remapping in [-1,1]     6.189171103E-02
 
           Polarization     6.727681919E-04 (a.u. of charge)/bohr^2
           Polarization     3.849227163E-02 C/m^2
 
 
 Computing the polarization (Berry phase) for reciprocal vector:
  0.00000  0.00000  0.16667 (in reduced coordinates)
  0.00000  0.00000  0.01738 (in cartesian coordinates - atomic units)
 Number of strings:    36
 Number of k points in string:    6
 
 Summary of the results
 Electronic Berry phase    -9.418001503E-11
            Ionic phase    -2.220446049E-16
            Total phase    -9.418023707E-11
    Remapping in [-1,1]    -9.418023707E-11
 
           Polarization    -1.023747231E-12 (a.u. of charge)/bohr^2
           Polarization    -5.857345365E-11 C/m^2
 
 
 Polarization in cartesian coordinates (a.u.):
 (the sum of the electronic and ionic Berry phase has been folded into [-1, 1])
     Electronic berry phase:        0.103863018E-11  -0.102635792E-02  -0.102374482E-11
     Ionic:                         0.482728769E-17   0.169912611E-02  -0.241364384E-17  
     Total:                         0.103863501E-11   0.672768192E-03  -0.102374723E-11
 
 Polarization in cartesian coordinates (C/m^2):
 (the sum of the electronic and ionic Berry phase has been folded into [-1, 1])
     Electronic berry phase:        0.594249780E-10  -0.587228236E-01  -0.585733156E-10
     Ionic:                         0.276192114E-15   0.972150952E-01  -0.138096057E-15  
     Total:                         0.594252542E-10   0.384922716E-01  -0.585734537E-10
 
 Cartesian components of stress tensor (hartree/bohr^3)
  sigma(1 1)= -1.72991946E-04  sigma(3 2)=  0.00000000E+00
  sigma(2 2)= -1.73321432E-04  sigma(3 1)= -1.82229991E-09
  sigma(3 3)= -4.75846911E-04  sigma(2 1)=  0.00000000E+00
 

--- !ResultsGS
iteration_state: {dtset: 1, }
comment   : Summary of ground state results
lattice_vectors:
- [  9.5914335,   0.0000000,   0.0000000, ]
- [  0.0000000,   9.5914335,   0.0000000, ]
- [  0.0000000,   0.0000000,   9.5914335, ]
lattice_lengths: [   9.59143,    9.59143,    9.59143, ]
lattice_angles: [ 90.000,  90.000,  90.000, ] # degrees, (23, 13, 12)
lattice_volume:   8.8236964E+02
convergence: {deltae: -8.868E-12, res2:  1.062E-09, residm:  6.198E-14, diffor: null, }
etotal    :  -3.58634242E+02
entropy   :   0.00000000E+00
fermie    :   2.77118478E-01
cartesian_stress_tensor: # hartree/bohr^3
- [ -1.72991946E-04,   0.00000000E+00,  -1.82229991E-09, ]
- [  0.00000000E+00,  -1.73321432E-04,   0.00000000E+00, ]
- [ -1.82229991E-09,   0.00000000E+00,  -4.75846911E-04, ]
pressure_GPa:   8.0629E+00
xred      :
- [  0.0000E+00,   3.2995E-03,   0.0000E+00, Hf]
- [  5.0000E-01,   5.0330E-01,   0.0000E+00, Hf]
- [  0.0000E+00,   5.0330E-01,   5.0000E-01, Hf]
- [  5.0000E-01,   3.3004E-03,   5.0000E-01, Hf]
- [  2.5252E-01,   2.4997E-01,   2.0156E-01,  O]
- [  2.4747E-01,   2.4993E-01,   7.0156E-01,  O]
- [  7.5249E-01,   7.4994E-01,   2.0157E-01,  O]
- [  7.4752E-01,   7.4998E-01,   7.0157E-01,  O]
- [  2.5248E-01,   7.4998E-01,   2.9843E-01,  O]
- [  2.4751E-01,   7.4994E-01,   7.9843E-01,  O]
- [  7.5253E-01,   2.4993E-01,   2.9844E-01,  O]
- [  7.4748E-01,   2.4997E-01,   7.9844E-01,  O]
cartesian_forces: # hartree/bohr
- [  0.00000000E+00,  -4.78961976E-04,  -7.05860789E-23, ]
- [  0.00000000E+00,  -4.78449613E-04,  -7.05860789E-23, ]
- [  0.00000000E+00,  -4.78421124E-04,  -7.05860789E-23, ]
- [  0.00000000E+00,  -4.78918390E-04,  -7.05860789E-23, ]
- [  5.38779761E-05,   2.39344686E-04,  -2.00273694E-06, ]
- [ -5.37812116E-05,   2.39336105E-04,  -2.27552223E-06, ]
- [  5.38414650E-05,   2.39367227E-04,  -2.07230243E-06, ]
- [ -5.37759856E-05,   2.39327534E-04,  -2.19976940E-06, ]
- [  5.37759856E-05,   2.39327534E-04,   2.19976940E-06, ]
- [ -5.38414650E-05,   2.39367227E-04,   2.07230243E-06, ]
- [  5.37812116E-05,   2.39336105E-04,   2.27552223E-06, ]
- [ -5.38779761E-05,   2.39344686E-04,   2.00273694E-06, ]
force_length_stats: {min:   2.45304635E-04, max:   4.78961976E-04, mean:   3.23115615E-04, }
...

 Integrated electronic density in atomic spheres:
 ------------------------------------------------
 Atom  Sphere_radius  Integrated_density
    1        2.00000          8.32030075
    2        2.00000          8.31653473
    3        2.00000          8.31441355
    4        2.00000          8.31729317
    5        2.00000          6.36940575
    6        2.00000          6.36556987
    7        2.00000          6.37713816
    8        2.00000          6.36939065
    9        2.00000          6.36939065
   10        2.00000          6.37713816
   11        2.00000          6.36556987
   12        2.00000          6.36940575
================================================================================
 
 ----iterations are completed or convergence reached----
 
 Mean square residual over all n,k,spin=   15.297E-15; max=  61.976E-15
 reduced coordinates (array xred) for   12 atoms
       0.000000000000      0.003299490000      0.000000000000
       0.500000000000      0.503298900000      0.000000000000
       0.000000000000      0.503304160000      0.500000000000
       0.500000000000      0.003300380000      0.500000000000
       0.252520360000      0.249967650000      0.201562370000
       0.247469850000      0.249932250000      0.701563130000
       0.752494020000      0.749940820000      0.201567220000
       0.747518310000      0.749982360000      0.701569150000
       0.252481690000      0.749982360000      0.298430850000
       0.247505980000      0.749940820000      0.798432780000
       0.752530150000      0.249932250000      0.298436870000
       0.747479640000      0.249967650000      0.798437630000
 rms dE/dt=  1.8902E-03; max dE/dt=  4.5762E-03; dE/dt below (all hartree)
    1       0.000000000000      0.004576185791      0.000000000000
    2       0.000000000000      0.004571271490      0.000000000000
    3       0.000000000000      0.004570998244      0.000000000000
    4       0.000000000000      0.004575767736      0.000000000000
    5      -0.000516767024     -0.002313404789      0.000019209118
    6       0.000515838914     -0.002313322479      0.000021825520
    7      -0.000516416831     -0.002313620981      0.000019876351
    8       0.000515788789     -0.002313240269      0.000021098942
    9      -0.000515788789     -0.002313240269     -0.000021098942
   10       0.000516416831     -0.002313620981     -0.000019876351
   11      -0.000515838914     -0.002313322479     -0.000021825520
   12       0.000516767024     -0.002313404789     -0.000019209118
 
 cartesian coordinates (angstrom) at end:
    1      0.00000000000000     0.01674678586032     0.00000000000000
    2      2.53778400000000     2.55452779127520     0.00000000000000
    3      0.00000000000000     2.55455448876288     2.53778400000000
    4      2.53778400000000     0.01675130311584     2.53778400000000
    5      1.28168425856448     1.26872780537520     1.02304351517616
    6      1.25605005162480     1.26854813026800     3.56083137260784
    7      3.81933456810336     3.80637562788576     1.02306813168096
    8      3.79408001365008     3.80658646698048     3.56086192752720
    9      1.28148798634992     3.80658646698048     1.51470607247280
   10      1.25623343189664     3.80637562788576     4.05249986831904
   11      3.81951794837520     1.26854813026800     1.51473662739216
   12      3.79388374143552     1.26872780537520     4.05252448482384
 
 cartesian forces (hartree/bohr) at end:
    1      0.00000000000000    -0.00047896197622    -0.00000000000000
    2      0.00000000000000    -0.00047844961269    -0.00000000000000
    3      0.00000000000000    -0.00047842112415    -0.00000000000000
    4      0.00000000000000    -0.00047891838998    -0.00000000000000
    5      0.00005387797606     0.00023934468649    -0.00000200273694
    6     -0.00005378121157     0.00023933610482    -0.00000227552223
    7      0.00005384146503     0.00023936722654    -0.00000207230243
    8     -0.00005377598562     0.00023932753367    -0.00000219976940
    9      0.00005377598562     0.00023932753367     0.00000219976940
   10     -0.00005384146503     0.00023936722654     0.00000207230243
   11      0.00005378121157     0.00023933610482     0.00000227552223
   12     -0.00005387797606     0.00023934468649     0.00000200273694
 frms,max,avg= 1.9706604E-04 4.7896198E-04   0.000E+00  1.850E-06  0.000E+00 h/b
 
 cartesian forces (eV/Angstrom) at end:
    1      0.00000000000000    -0.02462921300777    -0.00000000000000
    2      0.00000000000000    -0.02460286621788    -0.00000000000000
    3      0.00000000000000    -0.02460140127834    -0.00000000000000
    4      0.00000000000000    -0.02462697171358    -0.00000000000000
    5      0.00277051668986     0.01230759759326    -0.00010298486538
    6     -0.00276554085971     0.01230715630613    -0.00011701204806
    7      0.00276863921730     0.01230875664938    -0.00010656206644
    8     -0.00276527213065     0.01230671556001    -0.00011311668111
    9      0.00276527213065     0.01230671556001     0.00011311668111
   10     -0.00276863921730     0.01230875664938     0.00010656206644
   11      0.00276554085971     0.01230715630613     0.00011701204806
   12     -0.00277051668986     0.01230759759326     0.00010298486538
 frms,max,avg= 1.0133542E-02 2.4629213E-02   0.000E+00  9.514E-05  0.000E+00 e/A
 length scales=  9.591433488838  9.591433488838  9.591433488838 bohr
              =  5.075568000000  5.075568000000  5.075568000000 angstroms
 prteigrs : about to open file o_DS1_EIG
 Fermi (or HOMO) energy (hartree) =   0.27712   Average Vxc (hartree)=  -0.44601
 Eigenvalues (hartree) for nkpt= 112  k points:
 kpt#   1, nband= 48, wtk=  0.00463, kpt=  0.0000  0.0000  0.0000 (reduced coord)
  -1.94367   -1.94301   -1.94298   -1.94298   -0.80522   -0.80522   -0.80488   -0.79318
  -0.79311   -0.79280   -0.79273   -0.79147   -0.79146   -0.78860   -0.78697   -0.78697
  -0.39505   -0.33819   -0.32896   -0.32892   -0.31890   -0.31584   -0.31580   -0.29686
   0.06031    0.06032    0.07169    0.09588    0.10260    0.10263    0.16402    0.16428
   0.16650    0.16676    0.17271    0.17271    0.22349    0.22371    0.22824    0.22848
   0.24936    0.24980    0.25524    0.25533    0.25925    0.26626    0.26651    0.27519
 prteigrs : prtvol=0 or 1, do not print more k-points.
 

--- !EnergyTerms
iteration_state     : {dtset: 1, }
comment             : Components of total free energy in Hartree
kinetic             :  1.46193172649223E+02
hartree             :  5.59197700212403E+01
xc                  : -9.09043048880388E+01
Ewald energy        : -2.70162554436117E+02
psp_core            :  1.49595106529080E+01
local_psp           : -2.05526979759882E+02
non_local_psp       : -9.11285673552423E+00
total_energy        : -3.58634242496191E+02
total_energy_eV     : -9.75893403790418E+03
band_energy         : -3.10961346752142E+01
...

 
 Cartesian components of stress tensor (hartree/bohr^3)
  sigma(1 1)= -1.72991946E-04  sigma(3 2)=  0.00000000E+00
  sigma(2 2)= -1.73321432E-04  sigma(3 1)= -1.82229991E-09
  sigma(3 3)= -4.75846911E-04  sigma(2 1)=  0.00000000E+00
 
-Cartesian components of stress tensor (GPa)         [Pressure=  8.0629E+00 GPa]
- sigma(1 1)= -5.08959792E+00  sigma(3 2)=  0.00000000E+00
- sigma(2 2)= -5.09929173E+00  sigma(3 1)= -5.36139054E-05
- sigma(3 3)= -1.39998971E+01  sigma(2 1)=  0.00000000E+00
 
================================================================================
== DATASET  2 ==================================================================
-   mpi_nproc: 32, omp_nthreads: -1 (-1 if OMP is not activated)
-    --> not optimal distribution: autoparal keyword recommended in input file <--
 

--- !DatasetInfo
iteration_state: {dtset: 2, }
dimensions: {natom: 12, nkpt: 112, mband: 48, nsppol: 1, nspinor: 1, nspden: 1, mpw: 5294, }
cutoff_energies: {ecut:  25.0, pawecutdg:  25.0, }
electrons: {nelect:   9.60000000E+01, charge:   0.00000000E+00, occopt:   1.00000000E+00, tsmear:   4.00000000E-02, }
meta: {optdriver: 0, ionmov: 0, optcell: 0, iscf: 7, paral_kgb: 0, }
...

 mkfilename : getwfk/=0, take file _WFK from output of DATASET   1.
 
 Exchange-correlation functional for the present dataset will be:
  GGA: Perdew-Burke-Ernzerhof functional - ixc=11
 Citation for XC functional:
  J.P.Perdew, K.Burke, M.Ernzerhof, PRL 77, 3865 (1996)
 
 Real(R)+Recip(G) space primitive vectors, cartesian coordinates (Bohr,Bohr^-1):
 R(1)=  9.5914335  0.0000000  0.0000000  G(1)=  0.1042597  0.0000000  0.0000000
 R(2)=  0.0000000  9.5914335  0.0000000  G(2)=  0.0000000  0.1042597  0.0000000
 R(3)=  0.0000000  0.0000000  9.5914335  G(3)=  0.0000000  0.0000000  0.1042597
 Unit cell volume ucvol=  8.8236964E+02 bohr^3
 Angles (23,13,12)=  9.00000000E+01  9.00000000E+01  9.00000000E+01 degrees
 
 getcut: wavevector=  0.0000  0.0000  0.0000  ngfft=  45  45  45
         ecut(hartree)=     25.000   => boxcut(ratio)=   2.03814
--------------------------------------------------------------------------------
 
-inwffil : will read wavefunctions from disk file o_DS1_WFK
_setup2: Arith. and geom. avg. npw (full set) are    5268.875    5268.869
  initberry: for direction 1, nkstr =   6, nstr =     36
  initberry: for direction 2, nkstr =   6, nstr =     36
  initberry: for direction 3, nkstr =   6, nstr =     36
 
 initberry: COMMENT - 
  As a rough estimate,
  to be below the critical field, the bandgap of your system
  should be larger than    0.00 eV.
 
 
================================================================================

--- !BeginCycle
iteration_state: {dtset: 2, }
solver: {iscf: 7, nstep: 100, nline: 4, wfoptalg: 0, }
tolerances: {toldfe: 1.00E-10, }
...
 
     iter   Etot(hartree)      deltaE(h)  residm     vres2
 ETOT  1  -358.63424249619    -3.586E+02 1.554E-15 4.633E-09
 ETOT  2  -358.63424249619     3.411E-12 3.655E-15 5.894E-09
 ETOT  3  -358.63424249619    -4.832E-12 1.489E-14 2.481E-11
 
 At SCF step    3, etot is converged : 
  for the second time, diff in etot=  4.832E-12 < toldfe=  1.000E-10
 
 Computing the polarization (Berry phase) for reciprocal vector:
  0.16667  0.00000  0.00000 (in reduced coordinates)
  0.01738  0.00000  0.00000 (in cartesian coordinates - atomic units)
 Number of strings:    36
 Number of k points in string:    6
 
 Summary of the results
 Electronic Berry phase    -1.327345841E-12
            Ionic phase     4.440892099E-16
            Total phase    -1.326901752E-12
    Remapping in [-1,1]    -1.326901752E-12
 
           Polarization    -1.442353552E-14 (a.u. of charge)/bohr^2
           Polarization    -8.252391444E-13 C/m^2
 
 
 Computing the polarization (Berry phase) for reciprocal vector:
  0.00000  0.16667  0.00000 (in reduced coordinates)
  0.00000  0.01738  0.00000 (in cartesian coordinates - atomic units)
 Number of strings:    36
 Number of k points in string:    6
 
 Summary of the results
 Electronic Berry phase    -9.442041566E-02
            Ionic phase     1.563121200E-01
            Total phase     6.189170434E-02
    Remapping in [-1,1]     6.189170434E-02
 
           Polarization     6.727681192E-04 (a.u. of charge)/bohr^2
           Polarization     3.849226747E-02 C/m^2
 
 
 Computing the polarization (Berry phase) for reciprocal vector:
  0.00000  0.00000  0.16667 (in reduced coordinates)
  0.00000  0.00000  0.01738 (in cartesian coordinates - atomic units)
 Number of strings:    36
 Number of k points in string:    6
 
 Summary of the results
 Electronic Berry phase     2.993057776E-13
            Ionic phase    -2.220446049E-16
            Total phase     2.990837330E-13
    Remapping in [-1,1]     2.990837330E-13
 
           Polarization     3.251065755E-15 (a.u. of charge)/bohr^2
           Polarization     1.860089517E-13 C/m^2
 
 
 Polarization in cartesian coordinates (a.u.):
 (the sum of the electronic and ionic Berry phase has been folded into [-1, 1])
     Electronic berry phase:       -0.144283628E-13  -0.102635799E-02   0.325347940E-14
     Ionic:                         0.482728769E-17   0.169912611E-02  -0.241364384E-17  
     Total:                        -0.144235355E-13   0.672768119E-03   0.325106576E-14
 
 Polarization in cartesian coordinates (C/m^2):
 (the sum of the electronic and ionic Berry phase has been folded into [-1, 1])
     Electronic berry phase:       -0.825515336E-12  -0.587228278E-01   0.186147048E-12
     Ionic:                         0.276192114E-15   0.972150952E-01  -0.138096057E-15  
     Total:                        -0.825239144E-12   0.384922675E-01   0.186008952E-12
 
 Stress tensor under a constant electric field:
 
 Cartesian components of Maxwell stress tensor (hartree/bohr^3)
 Maxstr(1 1)=  0.00000000E+00 Maxstr(3 2)=  0.00000000E+00
 Maxstr(2 2)=  0.00000000E+00 Maxstr(3 1)=  0.00000000E+00
 Maxstr(3 3)=  0.00000000E+00 Maxstr(2 1)=  0.00000000E+00
 
 
 Cartesian components of stress tensor (hartree/bohr^3)
  sigma(1 1)= -1.72994296E-04  sigma(3 2)=  0.00000000E+00
  sigma(2 2)= -1.73323766E-04  sigma(3 1)= -1.77238016E-09
  sigma(3 3)= -4.75848855E-04  sigma(2 1)=  0.00000000E+00
 

--- !ResultsGS
iteration_state: {dtset: 2, }
comment   : Summary of ground state results
lattice_vectors:
- [  9.5914335,   0.0000000,   0.0000000, ]
- [  0.0000000,   9.5914335,   0.0000000, ]
- [  0.0000000,   0.0000000,   9.5914335, ]
lattice_lengths: [   9.59143,    9.59143,    9.59143, ]
lattice_angles: [ 90.000,  90.000,  90.000, ] # degrees, (23, 13, 12)
lattice_volume:   8.8236964E+02
convergence: {deltae: -4.832E-12, res2:  2.481E-11, residm:  1.489E-14, diffor: null, }
etotal    :  -3.58634242E+02
entropy   :   0.00000000E+00
fermie    :   2.77118428E-01
cartesian_stress_tensor: # hartree/bohr^3
- [ -1.72994296E-04,   0.00000000E+00,  -1.77238016E-09, ]
- [  0.00000000E+00,  -1.73323766E-04,   0.00000000E+00, ]
- [ -1.77238016E-09,   0.00000000E+00,  -4.75848855E-04, ]
pressure_GPa:   8.0630E+00
xred      :
- [  0.0000E+00,   3.2995E-03,   0.0000E+00, Hf]
- [  5.0000E-01,   5.0330E-01,   0.0000E+00, Hf]
- [  0.0000E+00,   5.0330E-01,   5.0000E-01, Hf]
- [  5.0000E-01,   3.3004E-03,   5.0000E-01, Hf]
- [  2.5252E-01,   2.4997E-01,   2.0156E-01,  O]
- [  2.4747E-01,   2.4993E-01,   7.0156E-01,  O]
- [  7.5249E-01,   7.4994E-01,   2.0157E-01,  O]
- [  7.4752E-01,   7.4998E-01,   7.0157E-01,  O]
- [  2.5248E-01,   7.4998E-01,   2.9843E-01,  O]
- [  2.4751E-01,   7.4994E-01,   7.9843E-01,  O]
- [  7.5253E-01,   2.4993E-01,   2.9844E-01,  O]
- [  7.4748E-01,   2.4997E-01,   7.9844E-01,  O]
cartesian_forces: # hartree/bohr
- [  0.00000000E+00,  -4.78822457E-04,   3.52930395E-23, ]
- [  0.00000000E+00,  -4.78556004E-04,   3.52930395E-23, ]
- [  0.00000000E+00,  -4.78560753E-04,   3.52930395E-23, ]
- [  0.00000000E+00,  -4.78803457E-04,   3.52930395E-23, ]
- [  5.38220339E-05,   2.39356407E-04,  -2.08154927E-06, ]
- [ -5.38291553E-05,   2.39346472E-04,  -2.11323044E-06, ]
- [  5.38331631E-05,   2.39339572E-04,  -2.07044070E-06, ]
- [ -5.38007582E-05,   2.39328885E-04,  -2.05150632E-06, ]
- [  5.38007582E-05,   2.39328885E-04,   2.05150632E-06, ]
- [ -5.38331631E-05,   2.39339572E-04,   2.07044070E-06, ]
- [  5.38291553E-05,   2.39346472E-04,   2.11323044E-06, ]
- [ -5.38220339E-05,   2.39356407E-04,   2.08154927E-06, ]
force_length_stats: {min:   2.45310100E-04, max:   4.78822457E-04, mean:   3.23114186E-04, }
...

 Integrated electronic density in atomic spheres:
 ------------------------------------------------
 Atom  Sphere_radius  Integrated_density
    1        2.00000          8.32030048
    2        2.00000          8.31653445
    3        2.00000          8.31441322
    4        2.00000          8.31729284
    5        2.00000          6.36940602
    6        2.00000          6.36557001
    7        2.00000          6.37713845
    8        2.00000          6.36939121
    9        2.00000          6.36939121
   10        2.00000          6.37713845
   11        2.00000          6.36557001
   12        2.00000          6.36940602
================================================================================
 
 ----iterations are completed or convergence reached----
 
 Mean square residual over all n,k,spin=   48.236E-16; max=  14.885E-15
 reduced coordinates (array xred) for   12 atoms
       0.000000000000      0.003299490000      0.000000000000
       0.500000000000      0.503298900000      0.000000000000
       0.000000000000      0.503304160000      0.500000000000
       0.500000000000      0.003300380000      0.500000000000
       0.252520360000      0.249967650000      0.201562370000
       0.247469850000      0.249932250000      0.701563130000
       0.752494020000      0.749940820000      0.201567220000
       0.747518310000      0.749982360000      0.701569150000
       0.252481690000      0.749982360000      0.298430850000
       0.247505980000      0.749940820000      0.798432780000
       0.752530150000      0.249932250000      0.298436870000
       0.747479640000      0.249967650000      0.798437630000
 rms dE/dt=  1.8902E-03; max dE/dt=  4.5749E-03; dE/dt below (all hartree)
    1       0.000000000000      0.004574854108      0.000000000000
    2       0.000000000000      0.004572298438      0.000000000000
    3       0.000000000000      0.004572343992      0.000000000000
    4       0.000000000000      0.004574671866      0.000000000000
    5      -0.000516230459     -0.002313510706      0.000019965041
    6       0.000516298763     -0.002313415408      0.000020268909
    7      -0.000516337203     -0.002313349227      0.000019858494
    8       0.000516026394     -0.002313246725      0.000019676886
    9      -0.000516026394     -0.002313246725     -0.000019676886
   10       0.000516337203     -0.002313349227     -0.000019858494
   11      -0.000516298763     -0.002313415408     -0.000020268909
   12       0.000516230459     -0.002313510706     -0.000019965041
 
 cartesian coordinates (angstrom) at end:
    1      0.00000000000000     0.01674678586032     0.00000000000000
    2      2.53778400000000     2.55452779127520     0.00000000000000
    3      0.00000000000000     2.55455448876288     2.53778400000000
    4      2.53778400000000     0.01675130311584     2.53778400000000
    5      1.28168425856448     1.26872780537520     1.02304351517616
    6      1.25605005162480     1.26854813026800     3.56083137260784
    7      3.81933456810336     3.80637562788576     1.02306813168096
    8      3.79408001365008     3.80658646698048     3.56086192752720
    9      1.28148798634992     3.80658646698048     1.51470607247280
   10      1.25623343189664     3.80637562788576     4.05249986831904
   11      3.81951794837520     1.26854813026800     1.51473662739216
   12      3.79388374143552     1.26872780537520     4.05252448482384
 
 cartesian forces (hartree/bohr) at end:
    1      0.00000000000000    -0.00047882245732     0.00000000000000
    2      0.00000000000000    -0.00047855600389     0.00000000000000
    3      0.00000000000000    -0.00047856075331     0.00000000000000
    4      0.00000000000000    -0.00047880345680     0.00000000000000
    5      0.00005382203391     0.00023935640749    -0.00000208154927
    6     -0.00005382915530     0.00023934647167    -0.00000211323044
    7      0.00005383316308     0.00023933957168    -0.00000207044070
    8     -0.00005380075824     0.00023932888482    -0.00000205150632
    9      0.00005380075824     0.00023932888482     0.00000205150632
   10     -0.00005383316308     0.00023933957168     0.00000207044070
   11      0.00005382915530     0.00023934647167     0.00000211323044
   12     -0.00005382203391     0.00023935640749     0.00000208154927
 frms,max,avg= 1.9706515E-04 4.7882246E-04   0.000E+00  1.850E-06  0.000E+00 h/b
 
 cartesian forces (eV/Angstrom) at end:
    1      0.00000000000000    -0.02462203865817     0.00000000000000
    2      0.00000000000000    -0.02460833707306     0.00000000000000
    3      0.00000000000000    -0.02460858129808     0.00000000000000
    4      0.00000000000000    -0.02462106161203     0.00000000000000
    5      0.00276764002903     0.01230820031121    -0.00010703755824
    6     -0.00276800622567     0.01230768939108    -0.00010866666920
    7      0.00276821231391     0.01230733457938    -0.00010646633255
    8     -0.00276654598991     0.01230678503900    -0.00010549268749
    9      0.00276654598991     0.01230678503900     0.00010549268749
   10     -0.00276821231391     0.01230733457938     0.00010646633255
   11      0.00276800622567     0.01230768939108     0.00010866666920
   12     -0.00276764002903     0.01230820031121     0.00010703755824
 frms,max,avg= 1.0133497E-02 2.4622039E-02   0.000E+00  9.511E-05  0.000E+00 e/A
 length scales=  9.591433488838  9.591433488838  9.591433488838 bohr
              =  5.075568000000  5.075568000000  5.075568000000 angstroms
 prteigrs : about to open file o_DS2_EIG
 Fermi (or HOMO) energy (hartree) =   0.27712   Average Vxc (hartree)=  -0.44601
 Eigenvalues (hartree) for nkpt= 112  k points:
 kpt#   1, nband= 48, wtk=  0.00463, kpt=  0.0000  0.0000  0.0000 (reduced coord)
  -1.94367   -1.94301   -1.94298   -1.94298   -0.80522   -0.80522   -0.80488   -0.79318
  -0.79311   -0.79280   -0.79273   -0.79147   -0.79146   -0.78860   -0.78697   -0.78697
  -0.39505   -0.33819   -0.32896   -0.32892   -0.31890   -0.31584   -0.31580   -0.29686
   0.06031    0.06032    0.07169    0.09588    0.10260    0.10263    0.16401    0.16428
   0.16650    0.16676    0.17271    0.17271    0.22349    0.22371    0.22824    0.22848
   0.24936    0.24980    0.25524    0.25533    0.25925    0.26626    0.26651    0.27519
 prteigrs : prtvol=0 or 1, do not print more k-points.
 

--- !EnergyTerms
iteration_state     : {dtset: 2, }
comment             : Components of total free energy in Hartree
kinetic             :  1.46193178929031E+02
hartree             :  5.59197737430749E+01
xc                  : -9.09043059981825E+01
Ewald energy        : -2.70162554436117E+02
psp_core            :  1.49595106529080E+01
local_psp           : -2.05526985453562E+02
non_local_psp       : -9.11285993334294E+00
electric            :  0.00000000000000E+00
kohn_sham           : -3.58634242496190E+02
total_energy        : -3.58634242496190E+02
total_energy_eV     : -9.75893403790416E+03
band_energy         : -3.10961352627743E+01
...

 
Constant unreduced E calculation  - final values:
 (a. u.)
       E:   0.000000000E+00   0.000000000E+00   0.000000000E+00  
       P:  -1.442353552E-14   6.727681192E-04   3.251065755E-15
 
    ebar:   0.000000000E+00   0.000000000E+00   0.000000000E+00  
    pbar:  -1.738461639E-12   8.108841036E-02   3.918493558E-13
 
       e:   0.000000000E+00   0.000000000E+00   0.000000000E+00  
       p:  -1.326901752E-12   6.189170434E-02   2.990837330E-13
 
 (S.I.), that is V/m for E, and C/m^2 for P
-      E:   0.000000000E+00   0.000000000E+00   0.000000000E+00  
       P:  -8.252391444E-13   3.849226747E-02   1.860089517E-13  
 
 
 Please check: COMMENT - 
  As a rough estimate,
  to be below the critical field, the bandgap of your system
  should be larger than    0.00 eV.
 
--------------------------------------------------------------------------------
 
 Cartesian components of stress tensor (hartree/bohr^3)
  sigma(1 1)= -1.72994296E-04  sigma(3 2)=  0.00000000E+00
  sigma(2 2)= -1.73323766E-04  sigma(3 1)= -1.77238016E-09
  sigma(3 3)= -4.75848855E-04  sigma(2 1)=  0.00000000E+00
 
-Cartesian components of stress tensor (GPa)         [Pressure=  8.0630E+00 GPa]
- sigma(1 1)= -5.08966706E+00  sigma(3 2)=  0.00000000E+00
- sigma(2 2)= -5.09936040E+00  sigma(3 1)= -5.21452158E-05
- sigma(3 3)= -1.39999543E+01  sigma(2 1)=  0.00000000E+00
 
== END DATASET(S) ==============================================================
================================================================================
  
 -outvars: echo values of variables after computation  --------
            acell      9.5914334888E+00  9.5914334888E+00  9.5914334888E+00 Bohr
              amu      1.78490000E+02  1.59994000E+01
         berryopt1         -1
         berryopt2          4
          chkprim           0
             ecut      2.50000000E+01 Hartree
           ecutsm      5.00000000E-01 Hartree
           etotal1    -3.5863424250E+02
           etotal2    -3.5863424250E+02
            fcart1     0.0000000000E+00 -4.7896197622E-04 -7.0586078938E-23
                       0.0000000000E+00 -4.7844961269E-04 -7.0586078938E-23
                       0.0000000000E+00 -4.7842112415E-04 -7.0586078938E-23
                       0.0000000000E+00 -4.7891838998E-04 -7.0586078938E-23
                       5.3877976065E-05  2.3934468649E-04 -2.0027369379E-06
                      -5.3781211566E-05  2.3933610482E-04 -2.2755222331E-06
                       5.3841465033E-05  2.3936722654E-04 -2.0723024287E-06
                      -5.3775985618E-05  2.3932753367E-04 -2.1997694002E-06
                       5.3775985618E-05  2.3932753367E-04  2.1997694002E-06
                      -5.3841465033E-05  2.3936722654E-04  2.0723024287E-06
                       5.3781211566E-05  2.3933610482E-04  2.2755222331E-06
                      -5.3877976065E-05  2.3934468649E-04  2.0027369379E-06
            fcart2     0.0000000000E+00 -4.7882245732E-04  3.5293039469E-23
                       0.0000000000E+00 -4.7855600389E-04  3.5293039469E-23
                       0.0000000000E+00 -4.7856075331E-04  3.5293039469E-23
                       0.0000000000E+00 -4.7880345680E-04  3.5293039469E-23
                       5.3822033913E-05  2.3935640749E-04 -2.0815492727E-06
                      -5.3829155305E-05  2.3934647167E-04 -2.1132304395E-06
                       5.3833163083E-05  2.3933957168E-04 -2.0704407007E-06
                      -5.3800758238E-05  2.3932888482E-04 -2.0515063174E-06
                       5.3800758238E-05  2.3932888482E-04  2.0515063174E-06
                      -5.3833163083E-05  2.3933957168E-04  2.0704407007E-06
                       5.3829155305E-05  2.3934647167E-04  2.1132304395E-06
                      -5.3822033913E-05  2.3935640749E-04  2.0815492727E-06
-          fftalg         512
           getwfk1          0
           getwfk2          1
           istwfk        1    0    0    1    0    0    0    0    0    0
                         0    0    0    0    0    0    1    0    0    1
                         0    0    0    0    0    0    0    0    0    0
                         0    0    0    0    0    0    0    0    0    0
                         0    0    0    0    0    0    0    0    0    0
                       outvar_i_n : Printing only first  50 k-points.
              ixc          11
           jdtset        1    2
              kpt      0.00000000E+00  0.00000000E+00  0.00000000E+00
                       1.66666667E-01  0.00000000E+00  0.00000000E+00
                       3.33333333E-01  0.00000000E+00  0.00000000E+00
                       5.00000000E-01  0.00000000E+00  0.00000000E+00
                       0.00000000E+00  1.66666667E-01  0.00000000E+00
                       1.66666667E-01  1.66666667E-01  0.00000000E+00
                       3.33333333E-01  1.66666667E-01  0.00000000E+00
                       5.00000000E-01  1.66666667E-01  0.00000000E+00
                      -3.33333333E-01  1.66666667E-01  0.00000000E+00
                      -1.66666667E-01  1.66666667E-01  0.00000000E+00
                       0.00000000E+00  3.33333333E-01  0.00000000E+00
                       1.66666667E-01  3.33333333E-01  0.00000000E+00
                       3.33333333E-01  3.33333333E-01  0.00000000E+00
                       5.00000000E-01  3.33333333E-01  0.00000000E+00
                      -3.33333333E-01  3.33333333E-01  0.00000000E+00
                      -1.66666667E-01  3.33333333E-01  0.00000000E+00
                       0.00000000E+00  5.00000000E-01  0.00000000E+00
                       1.66666667E-01  5.00000000E-01  0.00000000E+00
                       3.33333333E-01  5.00000000E-01  0.00000000E+00
                       5.00000000E-01  5.00000000E-01  0.00000000E+00
                       0.00000000E+00  0.00000000E+00  1.66666667E-01
                       1.66666667E-01  0.00000000E+00  1.66666667E-01
                       3.33333333E-01  0.00000000E+00  1.66666667E-01
                       5.00000000E-01  0.00000000E+00  1.66666667E-01
                      -3.33333333E-01  0.00000000E+00  1.66666667E-01
                      -1.66666667E-01  0.00000000E+00  1.66666667E-01
                       0.00000000E+00  1.66666667E-01  1.66666667E-01
                       1.66666667E-01  1.66666667E-01  1.66666667E-01
                       3.33333333E-01  1.66666667E-01  1.66666667E-01
                       5.00000000E-01  1.66666667E-01  1.66666667E-01
                      -3.33333333E-01  1.66666667E-01  1.66666667E-01
                      -1.66666667E-01  1.66666667E-01  1.66666667E-01
                       0.00000000E+00  3.33333333E-01  1.66666667E-01
                       1.66666667E-01  3.33333333E-01  1.66666667E-01
                       3.33333333E-01  3.33333333E-01  1.66666667E-01
                       5.00000000E-01  3.33333333E-01  1.66666667E-01
                      -3.33333333E-01  3.33333333E-01  1.66666667E-01
                      -1.66666667E-01  3.33333333E-01  1.66666667E-01
                       0.00000000E+00  5.00000000E-01  1.66666667E-01
                       1.66666667E-01  5.00000000E-01  1.66666667E-01
                       3.33333333E-01  5.00000000E-01  1.66666667E-01
                       5.00000000E-01  5.00000000E-01  1.66666667E-01
                      -3.33333333E-01  5.00000000E-01  1.66666667E-01
                      -1.66666667E-01  5.00000000E-01  1.66666667E-01
                       0.00000000E+00 -3.33333333E-01  1.66666667E-01
                       1.66666667E-01 -3.33333333E-01  1.66666667E-01
                       3.33333333E-01 -3.33333333E-01  1.66666667E-01
                       5.00000000E-01 -3.33333333E-01  1.66666667E-01
                      -3.33333333E-01 -3.33333333E-01  1.66666667E-01
                      -1.66666667E-01 -3.33333333E-01  1.66666667E-01
                       outvar_i_n : Printing only first  50 k-points.
           kptopt           2
         kptrlatt        6    0    0      0    6    0      0    0    6
          kptrlen      5.75486009E+01
P           mkmem           4
            natom          12
            nband          48
           ndtset           2
            ngfft          45      45      45
             nkpt         112
            nstep         100
             nsym           2
           ntypat           2
              occ      2.000000  2.000000  2.000000  2.000000  2.000000  2.000000
                       2.000000  2.000000  2.000000  2.000000  2.000000  2.000000
                       2.000000  2.000000  2.000000  2.000000  2.000000  2.000000
                       2.000000  2.000000  2.000000  2.000000  2.000000  2.000000
                       2.000000  2.000000  2.000000  2.000000  2.000000  2.000000
                       2.000000  2.000000  2.000000  2.000000  2.000000  2.000000
                       2.000000  2.000000  2.000000  2.000000  2.000000  2.000000
                       2.000000  2.000000  2.000000  2.000000  2.000000  2.000000
        pawecutdg      2.50000000E+01 Hartree
         pawxcdev           0
            rfdir1          1       1       1
            rfdir2          0       0       0
          spgroup           3
           strten1    -1.7299194623E-04 -1.7332143207E-04 -4.7584691063E-04
                       0.0000000000E+00 -1.8222999127E-09  0.0000000000E+00
           strten2    -1.7299429630E-04 -1.7332376620E-04 -4.7584885535E-04
                       0.0000000000E+00 -1.7723801584E-09  0.0000000000E+00
        symmorphi           0
           symrel      1  0  0   0  1  0   0  0  1      -1  0  0   0  1  0   0  0 -1
           toldfe      1.00000000E-10 Hartree
           tolmxf      1.00000000E-05
           tsmear      4.00000000E-02 Hartree
            typat      1  1  1  1  2  2  2  2  2  2  2  2
              wtk        0.00463    0.00926    0.00926    0.00463    0.00926    0.00926
                         0.00926    0.00926    0.00926    0.00926    0.00926    0.00926
                         0.00926    0.00926    0.00926    0.00926    0.00463    0.00926
                         0.00926    0.00463    0.00926    0.00926    0.00926    0.00926
                         0.00926    0.00926    0.00926    0.00926    0.00926    0.00926
                         0.00926    0.00926    0.00926    0.00926    0.00926    0.00926
                         0.00926    0.00926    0.00926    0.00926    0.00926    0.00926
                         0.00926    0.00926    0.00926    0.00926    0.00926    0.00926
                         0.00926    0.00926
                       outvars : Printing only first  50 k-points.
           xangst      0.0000000000E+00  1.6746785860E-02  0.0000000000E+00
                       2.5377840000E+00  2.5545277913E+00  0.0000000000E+00
                       0.0000000000E+00  2.5545544888E+00  2.5377840000E+00
                       2.5377840000E+00  1.6751303116E-02  2.5377840000E+00
                       1.2816842586E+00  1.2687278054E+00  1.0230435152E+00
                       1.2560500516E+00  1.2685481303E+00  3.5608313726E+00
                       3.8193345681E+00  3.8063756279E+00  1.0230681317E+00
                       3.7940800137E+00  3.8065864670E+00  3.5608619275E+00
                       1.2814879863E+00  3.8065864670E+00  1.5147060725E+00
                       1.2562334319E+00  3.8063756279E+00  4.0524998683E+00
                       3.8195179484E+00  1.2685481303E+00  1.5147366274E+00
                       3.7938837414E+00  1.2687278054E+00  4.0525244848E+00
            xcart      0.0000000000E+00  3.1646838882E-02  0.0000000000E+00
                       4.7957167444E+00  4.8273579244E+00  0.0000000000E+00
                       0.0000000000E+00  4.8274083753E+00  4.7957167444E+00
                       4.7957167444E+00  3.1655375258E-02  4.7957167444E+00
                       2.4220322375E+00  2.3975480893E+00  1.9332720657E+00
                       2.3735906068E+00  2.3972085526E+00  6.7289960996E+00
                       7.2174963436E+00  7.1930074956E+00  1.9333185842E+00
                       7.1697721521E+00  7.1934059237E+00  6.7290538400E+00
                       2.4216613368E+00  7.1934059237E+00  2.8623796488E+00
                       2.3739371453E+00  7.1930074956E+00  7.6581149047E+00
                       7.2178428821E+00  2.3972085526E+00  2.8624373892E+00
                       7.1694012513E+00  2.3975480893E+00  7.6581614231E+00
             xred      0.0000000000E+00  3.2994900000E-03  0.0000000000E+00
                       5.0000000000E-01  5.0329890000E-01  0.0000000000E+00
                       0.0000000000E+00  5.0330416000E-01  5.0000000000E-01
                       5.0000000000E-01  3.3003800000E-03  5.0000000000E-01
                       2.5252036000E-01  2.4996765000E-01  2.0156237000E-01
                       2.4746985000E-01  2.4993225000E-01  7.0156313000E-01
                       7.5249402000E-01  7.4994082000E-01  2.0156722000E-01
                       7.4751831000E-01  7.4998236000E-01  7.0156915000E-01
                       2.5248169000E-01  7.4998236000E-01  2.9843085000E-01
                       2.4750598000E-01  7.4994082000E-01  7.9843278000E-01
                       7.5253015000E-01  2.4993225000E-01  2.9843687000E-01
                       7.4747964000E-01  2.4996765000E-01  7.9843763000E-01
            znucl       72.00000    8.00000
 
================================================================================


- Timing analysis has been suppressed with timopt=0



================================================================================

 Suggested references for the acknowledgment of ABINIT usage.

 The users of ABINIT have little formal obligations with respect to the ABINIT group
 (those specified in the GNU General Public License, http://www.gnu.org/copyleft/gpl.txt).
 However, it is common practice in the scientific literature,
 to acknowledge the efforts of people that have made the research possible.
 In this spirit, please find below suggested citations of work written by ABINIT developers,
 corresponding to implementations inside of ABINIT that you have used in the present run.
 Note also that it will be of great value to readers of publications presenting these results,
 to read papers enabling them to understand the theoretical formalism and details
 of the ABINIT implementation.
 For information on why they are suggested, see also https://docs.abinit.org/theory/acknowledgments.
-
- [1] The Abinit project: Impact, environment and recent developments.
- Computer Phys. Comm. 248, 107042 (2020).
- X.Gonze, B. Amadon, G. Antonius, F.Arnardi, L.Baguet, J.-M.Beuken,
- J.Bieder, F.Bottin, J.Bouchet, E.Bousquet, N.Brouwer, F.Bruneval,
- G.Brunin, T.Cavignac, J.-B. Charraud, Wei Chen, M.Cote, S.Cottenier,
- J.Denier, G.Geneste, Ph.Ghosez, M.Giantomassi, Y.Gillet, O.Gingras,
- D.R.Hamann, G.Hautier, Xu He, N.Helbig, N.Holzwarth, Y.Jia, F.Jollet,
- W.Lafargue-Dit-Hauret, K.Lejaeghere, M.A.L.Marques, A.Martin, C.Martins,
- H.P.C. Miranda, F.Naccarato, K. Persson, G.Petretto, V.Planes, Y.Pouillon,
- S.Prokhorenko, F.Ricci, G.-M.Rignanese, A.H.Romero, M.M.Schmitt, M.Torrent,
- M.J.van Setten, B.Van Troeye, M.J.Verstraete, G.Zerah and J.W.Zwanzig
- Comment: the fifth generic paper describing the ABINIT project.
- Note that a version of this paper, that is not formatted for Computer Phys. Comm. 
- is available at https://www.abinit.org/sites/default/files/ABINIT20.pdf .
- The licence allows the authors to put it on the Web.
- DOI and bibtex: see https://docs.abinit.org/theory/bibliography/#gonze2020
-
- [2] Optimized norm-conserving Vanderbilt pseudopotentials.
- D.R. Hamann, Phys. Rev. B 88, 085117 (2013).
- Comment: Some pseudopotential generated using the ONCVPSP code were used.
- DOI and bibtex: see https://docs.abinit.org/theory/bibliography/#hamann2013
-
- [3] ABINIT: Overview, and focus on selected capabilities
- J. Chem. Phys. 152, 124102 (2020).
- A. Romero, D.C. Allan, B. Amadon, G. Antonius, T. Applencourt, L.Baguet,
- J.Bieder, F.Bottin, J.Bouchet, E.Bousquet, F.Bruneval,
- G.Brunin, D.Caliste, M.Cote,
- J.Denier, C. Dreyer, Ph.Ghosez, M.Giantomassi, Y.Gillet, O.Gingras,
- D.R.Hamann, G.Hautier, F.Jollet, G. Jomard,
- A.Martin, 
- H.P.C. Miranda, F.Naccarato, G.Petretto, N.A. Pike, V.Planes,
- S.Prokhorenko, T. Rangel, F.Ricci, G.-M.Rignanese, M.Royo, M.Stengel, M.Torrent,
- M.J.van Setten, B.Van Troeye, M.J.Verstraete, J.Wiktor, J.W.Zwanziger, and X.Gonze.
- Comment: a global overview of ABINIT, with focus on selected capabilities .
- Note that a version of this paper, that is not formatted for J. Chem. Phys 
- is available at https://www.abinit.org/sites/default/files/ABINIT20_JPC.pdf .
- The licence allows the authors to put it on the Web.
- DOI and bibtex: see https://docs.abinit.org/theory/bibliography/#romero2020
-
- [4] Recent developments in the ABINIT software package.
- Computer Phys. Comm. 205, 106 (2016).
- X.Gonze, F.Jollet, F.Abreu Araujo, D.Adams, B.Amadon, T.Applencourt,
- C.Audouze, J.-M.Beuken, J.Bieder, A.Bokhanchuk, E.Bousquet, F.Bruneval
- D.Caliste, M.Cote, F.Dahm, F.Da Pieve, M.Delaveau, M.Di Gennaro,
- B.Dorado, C.Espejo, G.Geneste, L.Genovese, A.Gerossier, M.Giantomassi,
- Y.Gillet, D.R.Hamann, L.He, G.Jomard, J.Laflamme Janssen, S.Le Roux,
- A.Levitt, A.Lherbier, F.Liu, I.Lukacevic, A.Martin, C.Martins,
- M.J.T.Oliveira, S.Ponce, Y.Pouillon, T.Rangel, G.-M.Rignanese,
- A.H.Romero, B.Rousseau, O.Rubel, A.A.Shukri, M.Stankovski, M.Torrent,
- M.J.Van Setten, B.Van Troeye, M.J.Verstraete, D.Waroquier, J.Wiktor,
- B.Xu, A.Zhou, J.W.Zwanziger.
- Comment: the fourth generic paper describing the ABINIT project.
- Note that a version of this paper, that is not formatted for Computer Phys. Comm. 
- is available at https://www.abinit.org/sites/default/files/ABINIT16.pdf .
- The licence allows the authors to put it on the Web.
- DOI and bibtex: see https://docs.abinit.org/theory/bibliography/#gonze2016
-
- And optionally:
-
- [5] ABINIT: First-principles approach of materials and nanosystem properties.
- Computer Phys. Comm. 180, 2582-2615 (2009).
- X. Gonze, B. Amadon, P.-M. Anglade, J.-M. Beuken, F. Bottin, P. Boulanger, F. Bruneval,
- D. Caliste, R. Caracas, M. Cote, T. Deutsch, L. Genovese, Ph. Ghosez, M. Giantomassi
- S. Goedecker, D.R. Hamann, P. Hermet, F. Jollet, G. Jomard, S. Leroux, M. Mancini, S. Mazevet,
- M.J.T. Oliveira, G. Onida, Y. Pouillon, T. Rangel, G.-M. Rignanese, D. Sangalli, R. Shaltaf,
- M. Torrent, M.J. Verstraete, G. Zerah, J.W. Zwanziger
- Comment: the third generic paper describing the ABINIT project.
- Note that a version of this paper, that is not formatted for Computer Phys. Comm. 
- is available at https://www.abinit.org/sites/default/files/ABINIT_CPC_v10.pdf .
- The licence allows the authors to put it on the Web.
- DOI and bibtex: see https://docs.abinit.org/theory/bibliography/#gonze2009
-
- Proc.   0 individual time (sec): cpu=        107.5  wall=        108.3
 
================================================================================
 
 Calculation completed.
.Delivered   0 WARNINGs and   2 COMMENTs to log file.
+Overall time at end (sec) : cpu=       3451.7  wall=       3464.0
