
.Version 9.4.2 of ABINIT 
.(MPI version, prepared for a x86_64_linux_intel19.0 computer) 

.Copyright (C) 1998-2021 ABINIT group . 
 ABINIT comes with ABSOLUTELY NO WARRANTY.
 It is free software, and you are welcome to redistribute it
 under certain conditions (GNU General Public License,
 see ~abinit/COPYING or http://www.gnu.org/copyleft/gpl.txt).

 ABINIT is a project of the Universite Catholique de Louvain,
 Corning Inc. and other collaborators, see ~abinit/doc/developers/contributors.txt .
 Please read https://docs.abinit.org/theory/acknowledgments for suggested
 acknowledgments of the ABINIT effort.
 For more information, see https://www.abinit.org .

.Starting date : Sun 20 Jun 2021.
- ( at 22h04 )
  
- input  file    -> /p/work1/jiahaoz/HfO4/CUBIC_ITERATE/iterone/P0.08/itenoe10
- output file    -> /p/work1/jiahaoz/HfO4/CUBIC_ITERATE/iterone/P0.08/itenoe10.abo
- root for input  files -> i
- root for output files -> o
 
 
 DATASET    1 : space group P2 (#  3); Bravais mP (primitive monocl.)
================================================================================
 Values of the parameters that define the memory need for DATASET  1.
     intxc =       0    ionmov =       0      iscf =       7    lmnmax =       8
     lnmax =       8     mgfft =      45  mpssoang =       4    mqgrid =    3001
     natom =      12  nloc_mem =       1    nspden =       1   nspinor =       1
    nsppol =       1      nsym =       2    n1xccc =    2501    ntypat =       2
    occopt =       1   xclevel =       2
-    mband =          48        mffmem =           1         mkmem =           4
       mpw =        5294          nfft =       91125          nkpt =         112
================================================================================
P This job should need less than                      46.953 Mbytes of memory.
  Rough estimation (10% accuracy) of disk space for files :
_ WF disk file :    434.275 Mbytes ; DEN or POT disk file :      0.697 Mbytes.
================================================================================
 
 
 DATASET    2 : space group P2 (#  3); Bravais mP (primitive monocl.)
================================================================================
 Values of the parameters that define the memory need for DATASET  2.
     intxc =       0    ionmov =       0      iscf =       7    lmnmax =       8
     lnmax =       8     mgfft =      45  mpssoang =       4    mqgrid =    3001
     natom =      12  nloc_mem =       1    nspden =       1   nspinor =       1
    nsppol =       1      nsym =       2    n1xccc =    2501    ntypat =       2
    occopt =       1   xclevel =       2
-    mband =          48        mffmem =           1         mkmem =           4
       mpw =        5294          nfft =       91125          nkpt =         112
================================================================================
P This job should need less than                      46.953 Mbytes of memory.
  Rough estimation (10% accuracy) of disk space for files :
_ WF disk file :    434.275 Mbytes ; DEN or POT disk file :      0.697 Mbytes.
================================================================================
 
--------------------------------------------------------------------------------
------------- Echo of variables that govern the present computation ------------
--------------------------------------------------------------------------------
-
- outvars: echo of selected default values                                      
-   iomode0 =  0 , fftalg0 =512 , wfoptalg0 =  0
-
- outvars: echo of global parameters not present in the input file              
-  max_nthreads =    0
-
 -outvars: echo values of preprocessed input variables --------
            acell      9.5914334888E+00  9.5914334888E+00  9.5914334888E+00 Bohr
              amu      1.78490000E+02  1.59994000E+01
         berryopt1         -1
         berryopt2          4
          chkprim           0
             ecut      2.50000000E+01 Hartree
           ecutsm      5.00000000E-01 Hartree
-          fftalg         512
           getwfk1          0
           getwfk2          1
           istwfk        1    0    0    1    0    0    0    0    0    0
                         0    0    0    0    0    0    1    0    0    1
                         0    0    0    0    0    0    0    0    0    0
                         0    0    0    0    0    0    0    0    0    0
                         0    0    0    0    0    0    0    0    0    0
                       outvar_i_n : Printing only first  50 k-points.
              ixc          11
           jdtset        1    2
              kpt      0.00000000E+00  0.00000000E+00  0.00000000E+00
                       1.66666667E-01  0.00000000E+00  0.00000000E+00
                       3.33333333E-01  0.00000000E+00  0.00000000E+00
                       5.00000000E-01  0.00000000E+00  0.00000000E+00
                       0.00000000E+00  1.66666667E-01  0.00000000E+00
                       1.66666667E-01  1.66666667E-01  0.00000000E+00
                       3.33333333E-01  1.66666667E-01  0.00000000E+00
                       5.00000000E-01  1.66666667E-01  0.00000000E+00
                      -3.33333333E-01  1.66666667E-01  0.00000000E+00
                      -1.66666667E-01  1.66666667E-01  0.00000000E+00
                       0.00000000E+00  3.33333333E-01  0.00000000E+00
                       1.66666667E-01  3.33333333E-01  0.00000000E+00
                       3.33333333E-01  3.33333333E-01  0.00000000E+00
                       5.00000000E-01  3.33333333E-01  0.00000000E+00
                      -3.33333333E-01  3.33333333E-01  0.00000000E+00
                      -1.66666667E-01  3.33333333E-01  0.00000000E+00
                       0.00000000E+00  5.00000000E-01  0.00000000E+00
                       1.66666667E-01  5.00000000E-01  0.00000000E+00
                       3.33333333E-01  5.00000000E-01  0.00000000E+00
                       5.00000000E-01  5.00000000E-01  0.00000000E+00
                       0.00000000E+00  0.00000000E+00  1.66666667E-01
                       1.66666667E-01  0.00000000E+00  1.66666667E-01
                       3.33333333E-01  0.00000000E+00  1.66666667E-01
                       5.00000000E-01  0.00000000E+00  1.66666667E-01
                      -3.33333333E-01  0.00000000E+00  1.66666667E-01
                      -1.66666667E-01  0.00000000E+00  1.66666667E-01
                       0.00000000E+00  1.66666667E-01  1.66666667E-01
                       1.66666667E-01  1.66666667E-01  1.66666667E-01
                       3.33333333E-01  1.66666667E-01  1.66666667E-01
                       5.00000000E-01  1.66666667E-01  1.66666667E-01
                      -3.33333333E-01  1.66666667E-01  1.66666667E-01
                      -1.66666667E-01  1.66666667E-01  1.66666667E-01
                       0.00000000E+00  3.33333333E-01  1.66666667E-01
                       1.66666667E-01  3.33333333E-01  1.66666667E-01
                       3.33333333E-01  3.33333333E-01  1.66666667E-01
                       5.00000000E-01  3.33333333E-01  1.66666667E-01
                      -3.33333333E-01  3.33333333E-01  1.66666667E-01
                      -1.66666667E-01  3.33333333E-01  1.66666667E-01
                       0.00000000E+00  5.00000000E-01  1.66666667E-01
                       1.66666667E-01  5.00000000E-01  1.66666667E-01
                       3.33333333E-01  5.00000000E-01  1.66666667E-01
                       5.00000000E-01  5.00000000E-01  1.66666667E-01
                      -3.33333333E-01  5.00000000E-01  1.66666667E-01
                      -1.66666667E-01  5.00000000E-01  1.66666667E-01
                       0.00000000E+00 -3.33333333E-01  1.66666667E-01
                       1.66666667E-01 -3.33333333E-01  1.66666667E-01
                       3.33333333E-01 -3.33333333E-01  1.66666667E-01
                       5.00000000E-01 -3.33333333E-01  1.66666667E-01
                      -3.33333333E-01 -3.33333333E-01  1.66666667E-01
                      -1.66666667E-01 -3.33333333E-01  1.66666667E-01
                       outvar_i_n : Printing only first  50 k-points.
           kptopt           2
         kptrlatt        6    0    0      0    6    0      0    0    6
          kptrlen      5.75486009E+01
P           mkmem           4
            natom          12
            nband          48
           ndtset           2
            ngfft          45      45      45
             nkpt         112
            nstep         100
             nsym           2
           ntypat           2
              occ      2.000000  2.000000  2.000000  2.000000  2.000000  2.000000
                       2.000000  2.000000  2.000000  2.000000  2.000000  2.000000
                       2.000000  2.000000  2.000000  2.000000  2.000000  2.000000
                       2.000000  2.000000  2.000000  2.000000  2.000000  2.000000
                       2.000000  2.000000  2.000000  2.000000  2.000000  2.000000
                       2.000000  2.000000  2.000000  2.000000  2.000000  2.000000
                       2.000000  2.000000  2.000000  2.000000  2.000000  2.000000
                       2.000000  2.000000  2.000000  2.000000  2.000000  2.000000
        pawecutdg      2.50000000E+01 Hartree
         pawxcdev           0
            rfdir1          1       1       1
            rfdir2          0       0       0
          spgroup           3
        symmorphi           0
           symrel      1  0  0   0  1  0   0  0  1      -1  0  0   0  1  0   0  0 -1
           toldfe      1.00000000E-10 Hartree
           tolmxf      1.00000000E-05
           tsmear      4.00000000E-02 Hartree
            typat      1  1  1  1  2  2  2  2  2  2  2  2
              wtk        0.00463    0.00926    0.00926    0.00463    0.00926    0.00926
                         0.00926    0.00926    0.00926    0.00926    0.00926    0.00926
                         0.00926    0.00926    0.00926    0.00926    0.00463    0.00926
                         0.00926    0.00463    0.00926    0.00926    0.00926    0.00926
                         0.00926    0.00926    0.00926    0.00926    0.00926    0.00926
                         0.00926    0.00926    0.00926    0.00926    0.00926    0.00926
                         0.00926    0.00926    0.00926    0.00926    0.00926    0.00926
                         0.00926    0.00926    0.00926    0.00926    0.00926    0.00926
                         0.00926    0.00926
                       outvars : Printing only first  50 k-points.
           xangst      0.0000000000E+00  3.3501185073E-02  0.0000000000E+00
                       2.5377840000E+00  2.5712785361E+00  0.0000000000E+00
                       0.0000000000E+00  2.5713208156E+00  2.5377840000E+00
                       2.5377840000E+00  3.3507224999E-02  2.5377840000E+00
                       1.2943806904E+00  1.2684604752E+00  1.0219888121E+00
                       1.2433903669E+00  1.2683793676E+00  3.5597767203E+00
                       3.8320835828E+00  3.8061771732E+00  1.0220231737E+00
                       3.7813005455E+00  3.8063052805E+00  3.5598192028E+00
                       1.2942674545E+00  3.8063052805E+00  1.5157487972E+00
                       1.2434844172E+00  3.8061771732E+00  4.0535448263E+00
                       3.8321776331E+00  1.2683793676E+00  1.5157912797E+00
                       3.7811873096E+00  1.2684604752E+00  4.0535791879E+00
            xcart      0.0000000000E+00  6.3308064914E-02  0.0000000000E+00
                       4.7957167444E+00  4.8590122446E+00  0.0000000000E+00
                       0.0000000000E+00  4.8590921412E+00  4.7957167444E+00
                       4.7957167444E+00  6.3319478720E-02  4.7957167444E+00
                       2.4460250166E+00  2.3970429085E+00  1.9312789658E+00
                       2.3496672697E+00  2.3968896374E+00  6.7270030957E+00
                       7.2415884899E+00  7.1926324705E+00  1.9313438998E+00
                       7.1456224572E+00  7.1928745583E+00  6.7270833759E+00
                       2.4458110317E+00  7.1928745583E+00  2.8643501129E+00
                       2.3498449990E+00  7.1926324705E+00  7.6600895890E+00
                       7.2417662191E+00  2.3968896374E+00  2.8644303932E+00
                       7.1454084723E+00  2.3970429085E+00  7.6601545230E+00
             xred      0.0000000000E+00  6.6004800000E-03  0.0000000000E+00
                       5.0000000000E-01  5.0659917000E-01  0.0000000000E+00
                       0.0000000000E+00  5.0660750000E-01  5.0000000000E-01
                       5.0000000000E-01  6.6016700000E-03  5.0000000000E-01
                       2.5502184000E-01  2.4991498000E-01  2.0135457000E-01
                       2.4497561000E-01  2.4989900000E-01  7.0135534000E-01
                       7.5500586000E-01  7.4990172000E-01  2.0136134000E-01
                       7.4500047000E-01  7.4992696000E-01  7.0136371000E-01
                       2.5499953000E-01  7.4992696000E-01  2.9863629000E-01
                       2.4499414000E-01  7.4990172000E-01  7.9863866000E-01
                       7.5502439000E-01  2.4989900000E-01  2.9864466000E-01
                       7.4497816000E-01  2.4991498000E-01  7.9864543000E-01
            znucl       72.00000    8.00000
 
================================================================================
 
 chkinp: Checking input parameters for consistency, jdtset=   1.
 
 chkinp: Checking input parameters for consistency, jdtset=   2.
 
================================================================================
== DATASET  1 ==================================================================
-   mpi_nproc: 32, omp_nthreads: -1 (-1 if OMP is not activated)
-    --> not optimal distribution: autoparal keyword recommended in input file <--
 

--- !DatasetInfo
iteration_state: {dtset: 1, }
dimensions: {natom: 12, nkpt: 112, mband: 48, nsppol: 1, nspinor: 1, nspden: 1, mpw: 5294, }
cutoff_energies: {ecut:  25.0, pawecutdg:  25.0, }
electrons: {nelect:   9.60000000E+01, charge:   0.00000000E+00, occopt:   1.00000000E+00, tsmear:   4.00000000E-02, }
meta: {optdriver: 0, ionmov: 0, optcell: 0, iscf: 7, paral_kgb: 0, }
...

 Exchange-correlation functional for the present dataset will be:
  GGA: Perdew-Burke-Ernzerhof functional - ixc=11
 Citation for XC functional:
  J.P.Perdew, K.Burke, M.Ernzerhof, PRL 77, 3865 (1996)
 
 Real(R)+Recip(G) space primitive vectors, cartesian coordinates (Bohr,Bohr^-1):
 R(1)=  9.5914335  0.0000000  0.0000000  G(1)=  0.1042597  0.0000000  0.0000000
 R(2)=  0.0000000  9.5914335  0.0000000  G(2)=  0.0000000  0.1042597  0.0000000
 R(3)=  0.0000000  0.0000000  9.5914335  G(3)=  0.0000000  0.0000000  0.1042597
 Unit cell volume ucvol=  8.8236964E+02 bohr^3
 Angles (23,13,12)=  9.00000000E+01  9.00000000E+01  9.00000000E+01 degrees
 
 getcut: wavevector=  0.0000  0.0000  0.0000  ngfft=  45  45  45
         ecut(hartree)=     25.000   => boxcut(ratio)=   2.03814
 
--- Pseudopotential description ------------------------------------------------
- pspini: atom type   1  psp file is /p/work1/jiahaoz/HfO4/pbe_s_sr/Hf.psp8
- pspatm: opening atomic psp file    /p/work1/jiahaoz/HfO4/pbe_s_sr/Hf.psp8
- Hf    ONCVPSP  r_core=  1.72  1.72  1.72  2.43
- 72.00000  12.00000    160625                znucl, zion, pspdat
    8   11    3    4       600   0.00000      pspcod,pspxc,lmax,lloc,mmax,r2well
    5.99000000000000    5.40000000000000    0.00000000000000   rchrg,fchrg,qchrg
     nproj     2     2     2     2
     extension_switch     1
  pspatm : epsatm=   21.98649506
         --- l  ekb(1:nproj) -->
             0    5.812335   -0.521211
             1   -3.038329    2.466565
             2    2.060039    0.471534
             3    9.947446    0.353012
 pspatm: atomic psp has been read  and splines computed
 
- pspini: atom type   2  psp file is /p/work1/jiahaoz/HfO4/pbe_s_sr/O.psp8
- pspatm: opening atomic psp file    /p/work1/jiahaoz/HfO4/pbe_s_sr/O.psp8
- O     ONCVPSP  r_core=  1.36  1.46  1.26
-  8.00000   6.00000    151103                znucl, zion, pspdat
    8   11    2    4       600   0.00000      pspcod,pspxc,lmax,lloc,mmax,r2well
    5.99000000000000    4.00000000000000    0.00000000000000   rchrg,fchrg,qchrg
     nproj     2     2     1
     extension_switch     1
  pspatm : epsatm=    6.19401560
         --- l  ekb(1:nproj) -->
             0    5.257212    0.704241
             1   -5.135443   -1.451781
             2   -4.371486
 pspatm: atomic psp has been read  and splines computed
 
   1.31998181E+04                                ecore*ucvol(ha*bohr**3)
--------------------------------------------------------------------------------
 
_setup2: Arith. and geom. avg. npw (full set) are    5268.875    5268.869
  initberry: for direction 1, nkstr =   6, nstr =     36
  initberry: for direction 2, nkstr =   6, nstr =     36
  initberry: for direction 3, nkstr =   6, nstr =     36
 
================================================================================

--- !BeginCycle
iteration_state: {dtset: 1, }
solver: {iscf: 7, nstep: 100, nline: 4, wfoptalg: 0, }
tolerances: {toldfe: 1.00E-10, }
...
 
     iter   Etot(hartree)      deltaE(h)  residm     vres2
 ETOT  1  -357.49517416873    -3.575E+02 3.221E-01 1.110E+03
 ETOT  2  -357.89953216434    -4.044E-01 5.300E-02 1.020E+03
 ETOT  3  -358.60147587304    -7.019E-01 2.203E-03 5.627E+01
 ETOT  4  -358.63406642799    -3.259E-02 1.239E-04 1.290E-01
 ETOT  5  -358.63413178570    -6.536E-05 2.266E-06 6.032E-02
 ETOT  6  -358.63415922761    -2.744E-05 6.153E-07 1.243E-02
 ETOT  7  -358.63416538056    -6.153E-06 6.379E-08 3.509E-04
 ETOT  8  -358.63416542908    -4.852E-08 3.704E-09 2.645E-04
 ETOT  9  -358.63416551679    -8.771E-08 1.521E-09 1.033E-05
 ETOT 10  -358.63416552180    -5.016E-09 2.564E-11 1.411E-07
 ETOT 11  -358.63416552185    -4.758E-11 1.434E-12 2.233E-08
 ETOT 12  -358.63416552186    -8.413E-12 7.186E-14 1.257E-09
 
 At SCF step   12, etot is converged : 
  for the second time, diff in etot=  8.413E-12 < toldfe=  1.000E-10
 
 Computing the polarization (Berry phase) for reciprocal vector:
  0.16667  0.00000  0.00000 (in reduced coordinates)
  0.01738  0.00000  0.00000 (in cartesian coordinates - atomic units)
 Number of strings:    36
 Number of k points in string:    6
 
 Summary of the results
 Electronic Berry phase     1.796144701E-10
            Ionic phase     4.440892099E-16
            Total phase     1.796149142E-10
    Remapping in [-1,1]     1.796149142E-10
 
           Polarization     1.952429477E-12 (a.u. of charge)/bohr^2
           Polarization     1.117077869E-10 C/m^2
 
 
 Computing the polarization (Berry phase) for reciprocal vector:
  0.00000  0.16667  0.00000 (in reduced coordinates)
  0.00000  0.01738  0.00000 (in cartesian coordinates - atomic units)
 Number of strings:    36
 Number of k points in string:    6
 
 Summary of the results
 Electronic Berry phase    -1.889117498E-01
            Ionic phase     3.126177600E-01
            Total phase     1.237060102E-01
    Remapping in [-1,1]     1.237060102E-01
 
           Polarization     1.344694910E-03 (a.u. of charge)/bohr^2
           Polarization     7.693639855E-02 C/m^2
 
 
 Computing the polarization (Berry phase) for reciprocal vector:
  0.00000  0.00000  0.16667 (in reduced coordinates)
  0.00000  0.00000  0.01738 (in cartesian coordinates - atomic units)
 Number of strings:    36
 Number of k points in string:    6
 
 Summary of the results
 Electronic Berry phase     2.119792070E-11
            Ionic phase     2.220446049E-16
            Total phase     2.119814274E-11
    Remapping in [-1,1]     2.119814274E-11
 
           Polarization     2.304256245E-13 (a.u. of charge)/bohr^2
           Polarization     1.318374714E-11 C/m^2
 
 
 Polarization in cartesian coordinates (a.u.):
 (the sum of the electronic and ionic Berry phase has been folded into [-1, 1])
     Electronic berry phase:        0.195242465E-11  -0.205348688E-02   0.230423211E-12
     Ionic:                         0.482728769E-17   0.339818179E-02   0.241364384E-17  
     Total:                         0.195242948E-11   0.134469491E-02   0.230425624E-12
 
 Polarization in cartesian coordinates (C/m^2):
 (the sum of the electronic and ionic Berry phase has been folded into [-1, 1])
     Electronic berry phase:        0.111707511E-09  -0.117489762E+00   0.131836090E-10
     Ionic:                         0.276192114E-15   0.194426160E+00   0.138096057E-15  
     Total:                         0.111707787E-09   0.769363986E-01   0.131837471E-10
 
 Cartesian components of stress tensor (hartree/bohr^3)
  sigma(1 1)= -1.74879040E-04  sigma(3 2)=  0.00000000E+00
  sigma(2 2)= -1.76149870E-04  sigma(3 1)= -2.58006757E-09
  sigma(3 3)= -4.77416875E-04  sigma(2 1)=  0.00000000E+00
 

--- !ResultsGS
iteration_state: {dtset: 1, }
comment   : Summary of ground state results
lattice_vectors:
- [  9.5914335,   0.0000000,   0.0000000, ]
- [  0.0000000,   9.5914335,   0.0000000, ]
- [  0.0000000,   0.0000000,   9.5914335, ]
lattice_lengths: [   9.59143,    9.59143,    9.59143, ]
lattice_angles: [ 90.000,  90.000,  90.000, ] # degrees, (23, 13, 12)
lattice_volume:   8.8236964E+02
convergence: {deltae: -8.413E-12, res2:  1.257E-09, residm:  7.186E-14, diffor: null, }
etotal    :  -3.58634166E+02
entropy   :   0.00000000E+00
fermie    :   2.77060628E-01
cartesian_stress_tensor: # hartree/bohr^3
- [ -1.74879040E-04,   0.00000000E+00,  -2.58006757E-09, ]
- [  0.00000000E+00,  -1.76149870E-04,   0.00000000E+00, ]
- [ -2.58006757E-09,   0.00000000E+00,  -4.77416875E-04, ]
pressure_GPa:   8.1246E+00
xred      :
- [  0.0000E+00,   6.6005E-03,   0.0000E+00, Hf]
- [  5.0000E-01,   5.0660E-01,   0.0000E+00, Hf]
- [  0.0000E+00,   5.0661E-01,   5.0000E-01, Hf]
- [  5.0000E-01,   6.6017E-03,   5.0000E-01, Hf]
- [  2.5502E-01,   2.4991E-01,   2.0135E-01,  O]
- [  2.4498E-01,   2.4990E-01,   7.0136E-01,  O]
- [  7.5501E-01,   7.4990E-01,   2.0136E-01,  O]
- [  7.4500E-01,   7.4993E-01,   7.0136E-01,  O]
- [  2.5500E-01,   7.4993E-01,   2.9864E-01,  O]
- [  2.4499E-01,   7.4990E-01,   7.9864E-01,  O]
- [  7.5502E-01,   2.4990E-01,   2.9864E-01,  O]
- [  7.4498E-01,   2.4991E-01,   7.9865E-01,  O]
cartesian_forces: # hartree/bohr
- [  0.00000000E+00,  -9.71825264E-04,  -2.82344316E-22, ]
- [  0.00000000E+00,  -9.71597617E-04,  -2.82344316E-22, ]
- [  0.00000000E+00,  -9.71643041E-04,  -2.82344316E-22, ]
- [  0.00000000E+00,  -9.71735021E-04,  -2.82344316E-22, ]
- [  1.09237105E-04,   4.85871075E-04,  -8.31791589E-06, ]
- [ -1.09158052E-04,   4.85865717E-04,  -8.56707980E-06, ]
- [  1.09195536E-04,   4.85834829E-04,  -8.35446108E-06, ]
- [ -1.09134267E-04,   4.85828850E-04,  -8.53125105E-06, ]
- [  1.09134267E-04,   4.85828850E-04,   8.53125105E-06, ]
- [ -1.09195536E-04,   4.85834829E-04,   8.35446108E-06, ]
- [  1.09158052E-04,   4.85865717E-04,   8.56707980E-06, ]
- [ -1.09237105E-04,   4.85871075E-04,   8.31791589E-06, ]
force_length_stats: {min:   4.98008778E-04, max:   9.71825264E-04, mean:   6.55925628E-04, }
...

 Integrated electronic density in atomic spheres:
 ------------------------------------------------
 Atom  Sphere_radius  Integrated_density
    1        2.00000          8.32749944
    2        2.00000          8.30767495
    3        2.00000          8.30565639
    4        2.00000          8.31292742
    5        2.00000          6.36759180
    6        2.00000          6.36709219
    7        2.00000          6.37478251
    8        2.00000          6.36573722
    9        2.00000          6.36573722
   10        2.00000          6.37478251
   11        2.00000          6.36709219
   12        2.00000          6.36759180
================================================================================
 
 ----iterations are completed or convergence reached----
 
 Mean square residual over all n,k,spin=   16.994E-15; max=  71.857E-15
 reduced coordinates (array xred) for   12 atoms
       0.000000000000      0.006600480000      0.000000000000
       0.500000000000      0.506599170000      0.000000000000
       0.000000000000      0.506607500000      0.500000000000
       0.500000000000      0.006601670000      0.500000000000
       0.255021840000      0.249914980000      0.201354570000
       0.244975610000      0.249899000000      0.701355340000
       0.755005860000      0.749901720000      0.201361340000
       0.745000470000      0.749926960000      0.701363710000
       0.254999530000      0.749926960000      0.298636290000
       0.244994140000      0.749901720000      0.798638660000
       0.755024390000      0.249899000000      0.298644660000
       0.744978160000      0.249914980000      0.798645430000
 rms dE/dt=  3.8370E-03; max dE/dt=  9.2942E-03; dE/dt below (all hartree)
    1       0.000000000000      0.009294154566      0.000000000000
    2       0.000000000000      0.009291971101      0.000000000000
    3       0.000000000000      0.009292406788      0.000000000000
    4       0.000000000000      0.009293289008      0.000000000000
    5      -0.001047740431     -0.004687242921      0.000079780737
    6       0.001046982195     -0.004687191527      0.000082170576
    7      -0.001047341718     -0.004686895264      0.000080131258
    8       0.001046754068     -0.004686837924      0.000081826927
    9      -0.001046754068     -0.004686837924     -0.000081826927
   10       0.001047341718     -0.004686895264     -0.000080131258
   11      -0.001046982195     -0.004687191527     -0.000082170576
   12       0.001047740431     -0.004687242921     -0.000079780737
 
 cartesian coordinates (angstrom) at end:
    1      0.00000000000000     0.03350118507264     0.00000000000000
    2      2.53778400000000     2.57127853607856     0.00000000000000
    3      0.00000000000000     2.57132081556000     2.53778400000000
    4      2.53778400000000     0.03350722499856     2.53778400000000
    5      1.29438069040512     1.26846047520864     1.02198881214576
    6      1.24339036689648     1.26837936763200     3.55977672033312
    7      3.83208358282848     3.80617717317696     1.02202317374112
    8      3.78130054551696     3.80630528051328     3.55981920283728
    9      1.29426745448304     3.80630528051328     1.51574879716272
   10      1.24348441717152     3.80617717317696     4.05354482625888
   11      3.83217763310352     1.26837936763200     1.51579127966688
   12      3.78118730959488     1.26846047520864     4.05357918785424
 
 cartesian forces (hartree/bohr) at end:
    1      0.00000000000000    -0.00097182526408    -0.00000000000000
    2      0.00000000000000    -0.00097159761667    -0.00000000000000
    3      0.00000000000000    -0.00097164304135    -0.00000000000000
    4      0.00000000000000    -0.00097173502127    -0.00000000000000
    5      0.00010923710540     0.00048587107540    -0.00000831791589
    6     -0.00010915805196     0.00048586571705    -0.00000856707980
    7      0.00010919553569     0.00048583482877    -0.00000835446108
    8     -0.00010913426747     0.00048582885046    -0.00000853125105
    9      0.00010913426747     0.00048582885046     0.00000853125105
   10     -0.00010919553569     0.00048583482877     0.00000835446108
   11      0.00010915805196     0.00048586571705     0.00000856707980
   12     -0.00010923710540     0.00048587107540     0.00000831791589
 frms,max,avg= 4.0003968E-04 9.7182526E-04   0.000E+00  2.819E-06  0.000E+00 h/b
 
 cartesian forces (eV/Angstrom) at end:
    1      0.00000000000000    -0.04997326014134    -0.00000000000000
    2      0.00000000000000    -0.04996155404183    -0.00000000000000
    3      0.00000000000000    -0.04996388987270    -0.00000000000000
    4      0.00000000000000    -0.04996861966964    -0.00000000000000
    5      0.00561719733694     0.02498449314233    -0.00042772439631
    6     -0.00561313224584     0.02498421760530    -0.00044053691860
    7      0.00561505973632     0.02498262926601    -0.00042960362572
    8     -0.00561190919811     0.02498232184911    -0.00043869453085
    9      0.00561190919811     0.02498232184911     0.00043869453085
   10     -0.00561505973632     0.02498262926601     0.00042960362572
   11      0.00561313224584     0.02498421760530     0.00044053691860
   12     -0.00561719733694     0.02498449314233     0.00042772439631
 frms,max,avg= 2.0570866E-02 4.9973260E-02   0.000E+00  1.450E-04  0.000E+00 e/A
 length scales=  9.591433488838  9.591433488838  9.591433488838 bohr
              =  5.075568000000  5.075568000000  5.075568000000 angstroms
 prteigrs : about to open file o_DS1_EIG
 Fermi (or HOMO) energy (hartree) =   0.27706   Average Vxc (hartree)=  -0.44600
 Eigenvalues (hartree) for nkpt= 112  k points:
 kpt#   1, nband= 48, wtk=  0.00463, kpt=  0.0000  0.0000  0.0000 (reduced coord)
  -1.94361   -1.94294   -1.94292   -1.94291   -0.80520   -0.80519   -0.80485   -0.79330
  -0.79308   -0.79276   -0.79256   -0.79147   -0.79143   -0.78854   -0.78693   -0.78693
  -0.39507   -0.33820   -0.32907   -0.32890   -0.31890   -0.31591   -0.31578   -0.29706
   0.06034    0.06038    0.07175    0.09589    0.10267    0.10279    0.16335    0.16421
   0.16650    0.16734    0.17263    0.17264    0.22289    0.22376    0.22765    0.22856
   0.24868    0.25038    0.25498    0.25531    0.25828    0.26619    0.26706    0.27518
 prteigrs : prtvol=0 or 1, do not print more k-points.
 

--- !EnergyTerms
iteration_state     : {dtset: 1, }
comment             : Components of total free energy in Hartree
kinetic             :  1.46198789600657E+02
hartree             :  5.59303329545916E+01
xc                  : -9.09055547069510E+01
Ewald energy        : -2.70150064279539E+02
psp_core            :  1.49595106529080E+01
local_psp           : -2.05553595778479E+02
non_local_psp       : -9.11358396504708E+00
total_energy        : -3.58634165521859E+02
total_energy_eV     : -9.75893194332609E+03
band_energy         : -3.10983234847823E+01
...

 
 Cartesian components of stress tensor (hartree/bohr^3)
  sigma(1 1)= -1.74879040E-04  sigma(3 2)=  0.00000000E+00
  sigma(2 2)= -1.76149870E-04  sigma(3 1)= -2.58006757E-09
  sigma(3 3)= -4.77416875E-04  sigma(2 1)=  0.00000000E+00
 
-Cartesian components of stress tensor (GPa)         [Pressure=  8.1246E+00 GPa]
- sigma(1 1)= -5.14511813E+00  sigma(3 2)=  0.00000000E+00
- sigma(2 2)= -5.18250723E+00  sigma(3 1)= -7.59081959E-05
- sigma(3 3)= -1.40460870E+01  sigma(2 1)=  0.00000000E+00
 
================================================================================
== DATASET  2 ==================================================================
-   mpi_nproc: 32, omp_nthreads: -1 (-1 if OMP is not activated)
-    --> not optimal distribution: autoparal keyword recommended in input file <--
 

--- !DatasetInfo
iteration_state: {dtset: 2, }
dimensions: {natom: 12, nkpt: 112, mband: 48, nsppol: 1, nspinor: 1, nspden: 1, mpw: 5294, }
cutoff_energies: {ecut:  25.0, pawecutdg:  25.0, }
electrons: {nelect:   9.60000000E+01, charge:   0.00000000E+00, occopt:   1.00000000E+00, tsmear:   4.00000000E-02, }
meta: {optdriver: 0, ionmov: 0, optcell: 0, iscf: 7, paral_kgb: 0, }
...

 mkfilename : getwfk/=0, take file _WFK from output of DATASET   1.
 
 Exchange-correlation functional for the present dataset will be:
  GGA: Perdew-Burke-Ernzerhof functional - ixc=11
 Citation for XC functional:
  J.P.Perdew, K.Burke, M.Ernzerhof, PRL 77, 3865 (1996)
 
 Real(R)+Recip(G) space primitive vectors, cartesian coordinates (Bohr,Bohr^-1):
 R(1)=  9.5914335  0.0000000  0.0000000  G(1)=  0.1042597  0.0000000  0.0000000
 R(2)=  0.0000000  9.5914335  0.0000000  G(2)=  0.0000000  0.1042597  0.0000000
 R(3)=  0.0000000  0.0000000  9.5914335  G(3)=  0.0000000  0.0000000  0.1042597
 Unit cell volume ucvol=  8.8236964E+02 bohr^3
 Angles (23,13,12)=  9.00000000E+01  9.00000000E+01  9.00000000E+01 degrees
 
 getcut: wavevector=  0.0000  0.0000  0.0000  ngfft=  45  45  45
         ecut(hartree)=     25.000   => boxcut(ratio)=   2.03814
--------------------------------------------------------------------------------
 
-inwffil : will read wavefunctions from disk file o_DS1_WFK
_setup2: Arith. and geom. avg. npw (full set) are    5268.875    5268.869
  initberry: for direction 1, nkstr =   6, nstr =     36
  initberry: for direction 2, nkstr =   6, nstr =     36
  initberry: for direction 3, nkstr =   6, nstr =     36
 
 initberry: COMMENT - 
  As a rough estimate,
  to be below the critical field, the bandgap of your system
  should be larger than    0.00 eV.
 
 
================================================================================

--- !BeginCycle
iteration_state: {dtset: 2, }
solver: {iscf: 7, nstep: 100, nline: 4, wfoptalg: 0, }
tolerances: {toldfe: 1.00E-10, }
...
 
     iter   Etot(hartree)      deltaE(h)  residm     vres2
 ETOT  1  -358.63416552186    -3.586E+02 1.992E-15 5.772E-09
 ETOT  2  -358.63416552186     1.990E-12 3.874E-15 7.408E-09
 ETOT  3  -358.63416552186    -4.320E-12 2.367E-14 3.253E-11
 
 At SCF step    3, etot is converged : 
  for the second time, diff in etot=  4.320E-12 < toldfe=  1.000E-10
 
 Computing the polarization (Berry phase) for reciprocal vector:
  0.16667  0.00000  0.00000 (in reduced coordinates)
  0.01738  0.00000  0.00000 (in cartesian coordinates - atomic units)
 Number of strings:    36
 Number of k points in string:    6
 
 Summary of the results
 Electronic Berry phase     8.121494355E-12
            Ionic phase     4.440892099E-16
            Total phase     8.121938444E-12
    Remapping in [-1,1]     8.121938444E-12
 
           Polarization     8.828616547E-14 (a.u. of charge)/bohr^2
           Polarization     5.051271899E-12 C/m^2
 
 
 Computing the polarization (Berry phase) for reciprocal vector:
  0.00000  0.16667  0.00000 (in reduced coordinates)
  0.00000  0.01738  0.00000 (in cartesian coordinates - atomic units)
 Number of strings:    36
 Number of k points in string:    6
 
 Summary of the results
 Electronic Berry phase    -1.889117551E-01
            Ionic phase     3.126177600E-01
            Total phase     1.237060049E-01
    Remapping in [-1,1]     1.237060049E-01
 
           Polarization     1.344694852E-03 (a.u. of charge)/bohr^2
           Polarization     7.693639525E-02 C/m^2
 
 
 Computing the polarization (Berry phase) for reciprocal vector:
  0.00000  0.00000  0.16667 (in reduced coordinates)
  0.00000  0.00000  0.01738 (in cartesian coordinates - atomic units)
 Number of strings:    36
 Number of k points in string:    6
 
 Summary of the results
 Electronic Berry phase    -2.274300187E-12
            Ionic phase     2.220446049E-16
            Total phase    -2.274078143E-12
    Remapping in [-1,1]    -2.274078143E-12
 
           Polarization    -2.471942389E-14 (a.u. of charge)/bohr^2
           Polarization    -1.414315942E-12 C/m^2
 
 
 Polarization in cartesian coordinates (a.u.):
 (the sum of the electronic and ionic Berry phase has been folded into [-1, 1])
     Electronic berry phase:        0.882813382E-13  -0.205348693E-02  -0.247218375E-13
     Ionic:                         0.482728769E-17   0.339818179E-02   0.241364384E-17  
     Total:                         0.882861655E-13   0.134469485E-02  -0.247194239E-13
 
 Polarization in cartesian coordinates (C/m^2):
 (the sum of the electronic and ionic Berry phase has been folded into [-1, 1])
     Electronic berry phase:        0.505099571E-11  -0.117489765E+00  -0.141445404E-11
     Ionic:                         0.276192114E-15   0.194426160E+00   0.138096057E-15  
     Total:                         0.505127190E-11   0.769363952E-01  -0.141431594E-11
 
 Stress tensor under a constant electric field:
 
 Cartesian components of Maxwell stress tensor (hartree/bohr^3)
 Maxstr(1 1)=  0.00000000E+00 Maxstr(3 2)=  0.00000000E+00
 Maxstr(2 2)=  0.00000000E+00 Maxstr(3 1)=  0.00000000E+00
 Maxstr(3 3)=  0.00000000E+00 Maxstr(2 1)=  0.00000000E+00
 
 
 Cartesian components of stress tensor (hartree/bohr^3)
  sigma(1 1)= -1.74881421E-04  sigma(3 2)=  0.00000000E+00
  sigma(2 2)= -1.76152248E-04  sigma(3 1)= -2.53955699E-09
  sigma(3 3)= -4.77418836E-04  sigma(2 1)=  0.00000000E+00
 

--- !ResultsGS
iteration_state: {dtset: 2, }
comment   : Summary of ground state results
lattice_vectors:
- [  9.5914335,   0.0000000,   0.0000000, ]
- [  0.0000000,   9.5914335,   0.0000000, ]
- [  0.0000000,   0.0000000,   9.5914335, ]
lattice_lengths: [   9.59143,    9.59143,    9.59143, ]
lattice_angles: [ 90.000,  90.000,  90.000, ] # degrees, (23, 13, 12)
lattice_volume:   8.8236964E+02
convergence: {deltae: -4.320E-12, res2:  3.253E-11, residm:  2.367E-14, diffor: null, }
etotal    :  -3.58634166E+02
entropy   :   0.00000000E+00
fermie    :   2.77060577E-01
cartesian_stress_tensor: # hartree/bohr^3
- [ -1.74881421E-04,   0.00000000E+00,  -2.53955699E-09, ]
- [  0.00000000E+00,  -1.76152248E-04,   0.00000000E+00, ]
- [ -2.53955699E-09,   0.00000000E+00,  -4.77418836E-04, ]
pressure_GPa:   8.1246E+00
xred      :
- [  0.0000E+00,   6.6005E-03,   0.0000E+00, Hf]
- [  5.0000E-01,   5.0660E-01,   0.0000E+00, Hf]
- [  0.0000E+00,   5.0661E-01,   5.0000E-01, Hf]
- [  5.0000E-01,   6.6017E-03,   5.0000E-01, Hf]
- [  2.5502E-01,   2.4991E-01,   2.0135E-01,  O]
- [  2.4498E-01,   2.4990E-01,   7.0136E-01,  O]
- [  7.5501E-01,   7.4990E-01,   2.0136E-01,  O]
- [  7.4500E-01,   7.4993E-01,   7.0136E-01,  O]
- [  2.5500E-01,   7.4993E-01,   2.9864E-01,  O]
- [  2.4499E-01,   7.4990E-01,   7.9864E-01,  O]
- [  7.5502E-01,   2.4990E-01,   2.9864E-01,  O]
- [  7.4498E-01,   2.4991E-01,   7.9865E-01,  O]
cartesian_forces: # hartree/bohr
- [  0.00000000E+00,  -9.71658127E-04,   2.82344316E-22, ]
- [  0.00000000E+00,  -9.71714477E-04,   2.82344316E-22, ]
- [  0.00000000E+00,  -9.71766428E-04,   2.82344316E-22, ]
- [  0.00000000E+00,  -9.71615278E-04,   2.82344316E-22, ]
- [  1.09187550E-04,   4.85872628E-04,  -8.38498852E-06, ]
- [ -1.09205251E-04,   4.85863851E-04,  -8.41467777E-06, ]
- [  1.09184269E-04,   4.85808529E-04,  -8.37375010E-06, ]
- [ -1.09158174E-04,   4.85832147E-04,  -8.35779185E-06, ]
- [  1.09158174E-04,   4.85832147E-04,   8.35779185E-06, ]
- [ -1.09184269E-04,   4.85808529E-04,   8.37375010E-06, ]
- [  1.09205251E-04,   4.85863851E-04,   8.41467777E-06, ]
- [ -1.09187550E-04,   4.85872628E-04,   8.38498852E-06, ]
force_length_stats: {min:   4.97997240E-04, max:   9.71766428E-04, mean:   6.55917644E-04, }
...

 Integrated electronic density in atomic spheres:
 ------------------------------------------------
 Atom  Sphere_radius  Integrated_density
    1        2.00000          8.32749916
    2        2.00000          8.30767466
    3        2.00000          8.30565604
    4        2.00000          8.31292709
    5        2.00000          6.36759182
    6        2.00000          6.36709258
    7        2.00000          6.37478309
    8        2.00000          6.36573753
    9        2.00000          6.36573753
   10        2.00000          6.37478309
   11        2.00000          6.36709258
   12        2.00000          6.36759182
================================================================================
 
 ----iterations are completed or convergence reached----
 
 Mean square residual over all n,k,spin=   76.353E-16; max=  23.670E-15
 reduced coordinates (array xred) for   12 atoms
       0.000000000000      0.006600480000      0.000000000000
       0.500000000000      0.506599170000      0.000000000000
       0.000000000000      0.506607500000      0.500000000000
       0.500000000000      0.006601670000      0.500000000000
       0.255021840000      0.249914980000      0.201354570000
       0.244975610000      0.249899000000      0.701355340000
       0.755005860000      0.749901720000      0.201361340000
       0.745000470000      0.749926960000      0.701363710000
       0.254999530000      0.749926960000      0.298636290000
       0.244994140000      0.749901720000      0.798638660000
       0.755024390000      0.249899000000      0.298644660000
       0.744978160000      0.249914980000      0.798645430000
 rms dE/dt=  3.8369E-03; max dE/dt=  9.2936E-03; dE/dt below (all hartree)
    1       0.000000000000      0.009292555123      0.000000000000
    2       0.000000000000      0.009293095595      0.000000000000
    3       0.000000000000      0.009293593886      0.000000000000
    4       0.000000000000      0.009292144135      0.000000000000
    5      -0.001047265127     -0.004687254174      0.000080424060
    6       0.001047434899     -0.004687169988      0.000080708822
    7      -0.001047233650     -0.004686639378      0.000080316267
    8       0.001046983366     -0.004686865904      0.000080163205
    9      -0.001046983366     -0.004686865904     -0.000080163205
   10       0.001047233650     -0.004686639378     -0.000080316267
   11      -0.001047434899     -0.004687169988     -0.000080708822
   12       0.001047265127     -0.004687254174     -0.000080424060
 
 cartesian coordinates (angstrom) at end:
    1      0.00000000000000     0.03350118507264     0.00000000000000
    2      2.53778400000000     2.57127853607856     0.00000000000000
    3      0.00000000000000     2.57132081556000     2.53778400000000
    4      2.53778400000000     0.03350722499856     2.53778400000000
    5      1.29438069040512     1.26846047520864     1.02198881214576
    6      1.24339036689648     1.26837936763200     3.55977672033312
    7      3.83208358282848     3.80617717317696     1.02202317374112
    8      3.78130054551696     3.80630528051328     3.55981920283728
    9      1.29426745448304     3.80630528051328     1.51574879716272
   10      1.24348441717152     3.80617717317696     4.05354482625888
   11      3.83217763310352     1.26837936763200     1.51579127966688
   12      3.78118730959488     1.26846047520864     4.05357918785424
 
 cartesian forces (hartree/bohr) at end:
    1      0.00000000000000    -0.00097165812736     0.00000000000000
    2      0.00000000000000    -0.00097171447678     0.00000000000000
    3      0.00000000000000    -0.00097176642843     0.00000000000000
    4      0.00000000000000    -0.00097161527780     0.00000000000000
    5      0.00010918755033     0.00048587262798    -0.00000838498852
    6     -0.00010920525076     0.00048586385072    -0.00000841467777
    7      0.00010918426857     0.00048580852945    -0.00000837375010
    8     -0.00010915817407     0.00048583214704    -0.00000835779185
    9      0.00010915817407     0.00048583214704     0.00000835779185
   10     -0.00010918426857     0.00048580852945     0.00000837375010
   11      0.00010920525076     0.00048586385072     0.00000841467777
   12     -0.00010918755033     0.00048587262798     0.00000838498852
 frms,max,avg= 4.0003483E-04 9.7176643E-04   0.000E+00  2.819E-06  0.000E+00 h/b
 
 cartesian forces (eV/Angstrom) at end:
    1      0.00000000000000    -0.04996466562656     0.00000000000000
    2      0.00000000000000    -0.04996756322954     0.00000000000000
    3      0.00000000000000    -0.04997023469082     0.00000000000000
    4      0.00000000000000    -0.04996246221350     0.00000000000000
    5      0.00561464911301     0.02498457297925    -0.00043117340935
    6     -0.00561555930530     0.02498412163472    -0.00043270009184
    7      0.00561448035809     0.02498127690047    -0.00043059550694
    8     -0.00561313852517     0.02498249136577    -0.00042977490058
    9      0.00561313852517     0.02498249136577     0.00042977490058
   10     -0.00561448035809     0.02498127690047     0.00043059550694
   11      0.00561555930530     0.02498412163472     0.00043270009184
   12     -0.00561464911301     0.02498457297925     0.00043117340935
 frms,max,avg= 2.0570616E-02 4.9970235E-02   0.000E+00  1.450E-04  0.000E+00 e/A
 length scales=  9.591433488838  9.591433488838  9.591433488838 bohr
              =  5.075568000000  5.075568000000  5.075568000000 angstroms
 prteigrs : about to open file o_DS2_EIG
 Fermi (or HOMO) energy (hartree) =   0.27706   Average Vxc (hartree)=  -0.44600
 Eigenvalues (hartree) for nkpt= 112  k points:
 kpt#   1, nband= 48, wtk=  0.00463, kpt=  0.0000  0.0000  0.0000 (reduced coord)
  -1.94361   -1.94294   -1.94292   -1.94291   -0.80520   -0.80519   -0.80485   -0.79330
  -0.79308   -0.79276   -0.79256   -0.79147   -0.79143   -0.78854   -0.78693   -0.78693
  -0.39507   -0.33820   -0.32907   -0.32890   -0.31890   -0.31591   -0.31578   -0.29706
   0.06034    0.06038    0.07175    0.09589    0.10267    0.10279    0.16335    0.16421
   0.16650    0.16734    0.17263    0.17264    0.22289    0.22376    0.22765    0.22856
   0.24868    0.25038    0.25498    0.25531    0.25828    0.26619    0.26706    0.27518
 prteigrs : prtvol=0 or 1, do not print more k-points.
 

--- !EnergyTerms
iteration_state     : {dtset: 2, }
comment             : Components of total free energy in Hartree
kinetic             :  1.46198796005385E+02
hartree             :  5.59303367552184E+01
xc                  : -9.09055558416595E+01
Ewald energy        : -2.70150064279539E+02
psp_core            :  1.49595106529080E+01
local_psp           : -2.05553601576384E+02
non_local_psp       : -9.11358723778968E+00
electric            :  0.00000000000000E+00
kohn_sham           : -3.58634165521860E+02
total_energy        : -3.58634165521860E+02
total_energy_eV     : -9.75893194332610E+03
band_energy         : -3.10983240438844E+01
...

 
Constant unreduced E calculation  - final values:
 (a. u.)
       E:   0.000000000E+00   0.000000000E+00   0.000000000E+00  
       P:   8.828616547E-14   1.344694852E-03  -2.471942389E-14
 
    ebar:   0.000000000E+00   0.000000000E+00   0.000000000E+00  
    pbar:   1.064108808E-11   1.620754089E-01  -2.979419998E-12
 
       e:   0.000000000E+00   0.000000000E+00   0.000000000E+00  
       p:   8.121938444E-12   1.237060049E-01  -2.274078143E-12
 
 (S.I.), that is V/m for E, and C/m^2 for P
-      E:   0.000000000E+00   0.000000000E+00   0.000000000E+00  
       P:   5.051271899E-12   7.693639525E-02  -1.414315942E-12  
 
 
 Please check: COMMENT - 
  As a rough estimate,
  to be below the critical field, the bandgap of your system
  should be larger than    0.00 eV.
 
--------------------------------------------------------------------------------
 
 Cartesian components of stress tensor (hartree/bohr^3)
  sigma(1 1)= -1.74881421E-04  sigma(3 2)=  0.00000000E+00
  sigma(2 2)= -1.76152248E-04  sigma(3 1)= -2.53955699E-09
  sigma(3 3)= -4.77418836E-04  sigma(2 1)=  0.00000000E+00
 
-Cartesian components of stress tensor (GPa)         [Pressure=  8.1246E+00 GPa]
- sigma(1 1)= -5.14518817E+00  sigma(3 2)=  0.00000000E+00
- sigma(2 2)= -5.18257719E+00  sigma(3 1)= -7.47163337E-05
- sigma(3 3)= -1.40461447E+01  sigma(2 1)=  0.00000000E+00
 
== END DATASET(S) ==============================================================
================================================================================
  
 -outvars: echo values of variables after computation  --------
            acell      9.5914334888E+00  9.5914334888E+00  9.5914334888E+00 Bohr
              amu      1.78490000E+02  1.59994000E+01
         berryopt1         -1
         berryopt2          4
          chkprim           0
             ecut      2.50000000E+01 Hartree
           ecutsm      5.00000000E-01 Hartree
           etotal1    -3.5863416552E+02
           etotal2    -3.5863416552E+02
            fcart1     0.0000000000E+00 -9.7182526408E-04 -2.8234431575E-22
                       0.0000000000E+00 -9.7159761667E-04 -2.8234431575E-22
                       0.0000000000E+00 -9.7164304135E-04 -2.8234431575E-22
                       0.0000000000E+00 -9.7173502127E-04 -2.8234431575E-22
                       1.0923710540E-04  4.8587107540E-04 -8.3179158858E-06
                      -1.0915805196E-04  4.8586571705E-04 -8.5670797951E-06
                       1.0919553569E-04  4.8583482877E-04 -8.3544610824E-06
                      -1.0913426747E-04  4.8582885046E-04 -8.5312510548E-06
                       1.0913426747E-04  4.8582885046E-04  8.5312510548E-06
                      -1.0919553569E-04  4.8583482877E-04  8.3544610824E-06
                       1.0915805196E-04  4.8586571705E-04  8.5670797951E-06
                      -1.0923710540E-04  4.8587107540E-04  8.3179158858E-06
            fcart2     0.0000000000E+00 -9.7165812736E-04  2.8234431575E-22
                       0.0000000000E+00 -9.7171447678E-04  2.8234431575E-22
                       0.0000000000E+00 -9.7176642843E-04  2.8234431575E-22
                       0.0000000000E+00 -9.7161527780E-04  2.8234431575E-22
                       1.0918755033E-04  4.8587262798E-04 -8.3849885162E-06
                      -1.0920525076E-04  4.8586385072E-04 -8.4146777663E-06
                       1.0918426857E-04  4.8580852945E-04 -8.3737501027E-06
                      -1.0915817407E-04  4.8583214704E-04 -8.3577918486E-06
                       1.0915817407E-04  4.8583214704E-04  8.3577918486E-06
                      -1.0918426857E-04  4.8580852945E-04  8.3737501027E-06
                       1.0920525076E-04  4.8586385072E-04  8.4146777663E-06
                      -1.0918755033E-04  4.8587262798E-04  8.3849885162E-06
-          fftalg         512
           getwfk1          0
           getwfk2          1
           istwfk        1    0    0    1    0    0    0    0    0    0
                         0    0    0    0    0    0    1    0    0    1
                         0    0    0    0    0    0    0    0    0    0
                         0    0    0    0    0    0    0    0    0    0
                         0    0    0    0    0    0    0    0    0    0
                       outvar_i_n : Printing only first  50 k-points.
              ixc          11
           jdtset        1    2
              kpt      0.00000000E+00  0.00000000E+00  0.00000000E+00
                       1.66666667E-01  0.00000000E+00  0.00000000E+00
                       3.33333333E-01  0.00000000E+00  0.00000000E+00
                       5.00000000E-01  0.00000000E+00  0.00000000E+00
                       0.00000000E+00  1.66666667E-01  0.00000000E+00
                       1.66666667E-01  1.66666667E-01  0.00000000E+00
                       3.33333333E-01  1.66666667E-01  0.00000000E+00
                       5.00000000E-01  1.66666667E-01  0.00000000E+00
                      -3.33333333E-01  1.66666667E-01  0.00000000E+00
                      -1.66666667E-01  1.66666667E-01  0.00000000E+00
                       0.00000000E+00  3.33333333E-01  0.00000000E+00
                       1.66666667E-01  3.33333333E-01  0.00000000E+00
                       3.33333333E-01  3.33333333E-01  0.00000000E+00
                       5.00000000E-01  3.33333333E-01  0.00000000E+00
                      -3.33333333E-01  3.33333333E-01  0.00000000E+00
                      -1.66666667E-01  3.33333333E-01  0.00000000E+00
                       0.00000000E+00  5.00000000E-01  0.00000000E+00
                       1.66666667E-01  5.00000000E-01  0.00000000E+00
                       3.33333333E-01  5.00000000E-01  0.00000000E+00
                       5.00000000E-01  5.00000000E-01  0.00000000E+00
                       0.00000000E+00  0.00000000E+00  1.66666667E-01
                       1.66666667E-01  0.00000000E+00  1.66666667E-01
                       3.33333333E-01  0.00000000E+00  1.66666667E-01
                       5.00000000E-01  0.00000000E+00  1.66666667E-01
                      -3.33333333E-01  0.00000000E+00  1.66666667E-01
                      -1.66666667E-01  0.00000000E+00  1.66666667E-01
                       0.00000000E+00  1.66666667E-01  1.66666667E-01
                       1.66666667E-01  1.66666667E-01  1.66666667E-01
                       3.33333333E-01  1.66666667E-01  1.66666667E-01
                       5.00000000E-01  1.66666667E-01  1.66666667E-01
                      -3.33333333E-01  1.66666667E-01  1.66666667E-01
                      -1.66666667E-01  1.66666667E-01  1.66666667E-01
                       0.00000000E+00  3.33333333E-01  1.66666667E-01
                       1.66666667E-01  3.33333333E-01  1.66666667E-01
                       3.33333333E-01  3.33333333E-01  1.66666667E-01
                       5.00000000E-01  3.33333333E-01  1.66666667E-01
                      -3.33333333E-01  3.33333333E-01  1.66666667E-01
                      -1.66666667E-01  3.33333333E-01  1.66666667E-01
                       0.00000000E+00  5.00000000E-01  1.66666667E-01
                       1.66666667E-01  5.00000000E-01  1.66666667E-01
                       3.33333333E-01  5.00000000E-01  1.66666667E-01
                       5.00000000E-01  5.00000000E-01  1.66666667E-01
                      -3.33333333E-01  5.00000000E-01  1.66666667E-01
                      -1.66666667E-01  5.00000000E-01  1.66666667E-01
                       0.00000000E+00 -3.33333333E-01  1.66666667E-01
                       1.66666667E-01 -3.33333333E-01  1.66666667E-01
                       3.33333333E-01 -3.33333333E-01  1.66666667E-01
                       5.00000000E-01 -3.33333333E-01  1.66666667E-01
                      -3.33333333E-01 -3.33333333E-01  1.66666667E-01
                      -1.66666667E-01 -3.33333333E-01  1.66666667E-01
                       outvar_i_n : Printing only first  50 k-points.
           kptopt           2
         kptrlatt        6    0    0      0    6    0      0    0    6
          kptrlen      5.75486009E+01
P           mkmem           4
            natom          12
            nband          48
           ndtset           2
            ngfft          45      45      45
             nkpt         112
            nstep         100
             nsym           2
           ntypat           2
              occ      2.000000  2.000000  2.000000  2.000000  2.000000  2.000000
                       2.000000  2.000000  2.000000  2.000000  2.000000  2.000000
                       2.000000  2.000000  2.000000  2.000000  2.000000  2.000000
                       2.000000  2.000000  2.000000  2.000000  2.000000  2.000000
                       2.000000  2.000000  2.000000  2.000000  2.000000  2.000000
                       2.000000  2.000000  2.000000  2.000000  2.000000  2.000000
                       2.000000  2.000000  2.000000  2.000000  2.000000  2.000000
                       2.000000  2.000000  2.000000  2.000000  2.000000  2.000000
        pawecutdg      2.50000000E+01 Hartree
         pawxcdev           0
            rfdir1          1       1       1
            rfdir2          0       0       0
          spgroup           3
           strten1    -1.7487904004E-04 -1.7614987009E-04 -4.7741687460E-04
                       0.0000000000E+00 -2.5800675709E-09  0.0000000000E+00
           strten2    -1.7488142089E-04 -1.7615224786E-04 -4.7741883553E-04
                       0.0000000000E+00 -2.5395569922E-09  0.0000000000E+00
        symmorphi           0
           symrel      1  0  0   0  1  0   0  0  1      -1  0  0   0  1  0   0  0 -1
           toldfe      1.00000000E-10 Hartree
           tolmxf      1.00000000E-05
           tsmear      4.00000000E-02 Hartree
            typat      1  1  1  1  2  2  2  2  2  2  2  2
              wtk        0.00463    0.00926    0.00926    0.00463    0.00926    0.00926
                         0.00926    0.00926    0.00926    0.00926    0.00926    0.00926
                         0.00926    0.00926    0.00926    0.00926    0.00463    0.00926
                         0.00926    0.00463    0.00926    0.00926    0.00926    0.00926
                         0.00926    0.00926    0.00926    0.00926    0.00926    0.00926
                         0.00926    0.00926    0.00926    0.00926    0.00926    0.00926
                         0.00926    0.00926    0.00926    0.00926    0.00926    0.00926
                         0.00926    0.00926    0.00926    0.00926    0.00926    0.00926
                         0.00926    0.00926
                       outvars : Printing only first  50 k-points.
           xangst      0.0000000000E+00  3.3501185073E-02  0.0000000000E+00
                       2.5377840000E+00  2.5712785361E+00  0.0000000000E+00
                       0.0000000000E+00  2.5713208156E+00  2.5377840000E+00
                       2.5377840000E+00  3.3507224999E-02  2.5377840000E+00
                       1.2943806904E+00  1.2684604752E+00  1.0219888121E+00
                       1.2433903669E+00  1.2683793676E+00  3.5597767203E+00
                       3.8320835828E+00  3.8061771732E+00  1.0220231737E+00
                       3.7813005455E+00  3.8063052805E+00  3.5598192028E+00
                       1.2942674545E+00  3.8063052805E+00  1.5157487972E+00
                       1.2434844172E+00  3.8061771732E+00  4.0535448263E+00
                       3.8321776331E+00  1.2683793676E+00  1.5157912797E+00
                       3.7811873096E+00  1.2684604752E+00  4.0535791879E+00
            xcart      0.0000000000E+00  6.3308064914E-02  0.0000000000E+00
                       4.7957167444E+00  4.8590122446E+00  0.0000000000E+00
                       0.0000000000E+00  4.8590921412E+00  4.7957167444E+00
                       4.7957167444E+00  6.3319478720E-02  4.7957167444E+00
                       2.4460250166E+00  2.3970429085E+00  1.9312789658E+00
                       2.3496672697E+00  2.3968896374E+00  6.7270030957E+00
                       7.2415884899E+00  7.1926324705E+00  1.9313438998E+00
                       7.1456224572E+00  7.1928745583E+00  6.7270833759E+00
                       2.4458110317E+00  7.1928745583E+00  2.8643501129E+00
                       2.3498449990E+00  7.1926324705E+00  7.6600895890E+00
                       7.2417662191E+00  2.3968896374E+00  2.8644303932E+00
                       7.1454084723E+00  2.3970429085E+00  7.6601545230E+00
             xred      0.0000000000E+00  6.6004800000E-03  0.0000000000E+00
                       5.0000000000E-01  5.0659917000E-01  0.0000000000E+00
                       0.0000000000E+00  5.0660750000E-01  5.0000000000E-01
                       5.0000000000E-01  6.6016700000E-03  5.0000000000E-01
                       2.5502184000E-01  2.4991498000E-01  2.0135457000E-01
                       2.4497561000E-01  2.4989900000E-01  7.0135534000E-01
                       7.5500586000E-01  7.4990172000E-01  2.0136134000E-01
                       7.4500047000E-01  7.4992696000E-01  7.0136371000E-01
                       2.5499953000E-01  7.4992696000E-01  2.9863629000E-01
                       2.4499414000E-01  7.4990172000E-01  7.9863866000E-01
                       7.5502439000E-01  2.4989900000E-01  2.9864466000E-01
                       7.4497816000E-01  2.4991498000E-01  7.9864543000E-01
            znucl       72.00000    8.00000
 
================================================================================


- Timing analysis has been suppressed with timopt=0



================================================================================

 Suggested references for the acknowledgment of ABINIT usage.

 The users of ABINIT have little formal obligations with respect to the ABINIT group
 (those specified in the GNU General Public License, http://www.gnu.org/copyleft/gpl.txt).
 However, it is common practice in the scientific literature,
 to acknowledge the efforts of people that have made the research possible.
 In this spirit, please find below suggested citations of work written by ABINIT developers,
 corresponding to implementations inside of ABINIT that you have used in the present run.
 Note also that it will be of great value to readers of publications presenting these results,
 to read papers enabling them to understand the theoretical formalism and details
 of the ABINIT implementation.
 For information on why they are suggested, see also https://docs.abinit.org/theory/acknowledgments.
-
- [1] The Abinit project: Impact, environment and recent developments.
- Computer Phys. Comm. 248, 107042 (2020).
- X.Gonze, B. Amadon, G. Antonius, F.Arnardi, L.Baguet, J.-M.Beuken,
- J.Bieder, F.Bottin, J.Bouchet, E.Bousquet, N.Brouwer, F.Bruneval,
- G.Brunin, T.Cavignac, J.-B. Charraud, Wei Chen, M.Cote, S.Cottenier,
- J.Denier, G.Geneste, Ph.Ghosez, M.Giantomassi, Y.Gillet, O.Gingras,
- D.R.Hamann, G.Hautier, Xu He, N.Helbig, N.Holzwarth, Y.Jia, F.Jollet,
- W.Lafargue-Dit-Hauret, K.Lejaeghere, M.A.L.Marques, A.Martin, C.Martins,
- H.P.C. Miranda, F.Naccarato, K. Persson, G.Petretto, V.Planes, Y.Pouillon,
- S.Prokhorenko, F.Ricci, G.-M.Rignanese, A.H.Romero, M.M.Schmitt, M.Torrent,
- M.J.van Setten, B.Van Troeye, M.J.Verstraete, G.Zerah and J.W.Zwanzig
- Comment: the fifth generic paper describing the ABINIT project.
- Note that a version of this paper, that is not formatted for Computer Phys. Comm. 
- is available at https://www.abinit.org/sites/default/files/ABINIT20.pdf .
- The licence allows the authors to put it on the Web.
- DOI and bibtex: see https://docs.abinit.org/theory/bibliography/#gonze2020
-
- [2] Optimized norm-conserving Vanderbilt pseudopotentials.
- D.R. Hamann, Phys. Rev. B 88, 085117 (2013).
- Comment: Some pseudopotential generated using the ONCVPSP code were used.
- DOI and bibtex: see https://docs.abinit.org/theory/bibliography/#hamann2013
-
- [3] ABINIT: Overview, and focus on selected capabilities
- J. Chem. Phys. 152, 124102 (2020).
- A. Romero, D.C. Allan, B. Amadon, G. Antonius, T. Applencourt, L.Baguet,
- J.Bieder, F.Bottin, J.Bouchet, E.Bousquet, F.Bruneval,
- G.Brunin, D.Caliste, M.Cote,
- J.Denier, C. Dreyer, Ph.Ghosez, M.Giantomassi, Y.Gillet, O.Gingras,
- D.R.Hamann, G.Hautier, F.Jollet, G. Jomard,
- A.Martin, 
- H.P.C. Miranda, F.Naccarato, G.Petretto, N.A. Pike, V.Planes,
- S.Prokhorenko, T. Rangel, F.Ricci, G.-M.Rignanese, M.Royo, M.Stengel, M.Torrent,
- M.J.van Setten, B.Van Troeye, M.J.Verstraete, J.Wiktor, J.W.Zwanziger, and X.Gonze.
- Comment: a global overview of ABINIT, with focus on selected capabilities .
- Note that a version of this paper, that is not formatted for J. Chem. Phys 
- is available at https://www.abinit.org/sites/default/files/ABINIT20_JPC.pdf .
- The licence allows the authors to put it on the Web.
- DOI and bibtex: see https://docs.abinit.org/theory/bibliography/#romero2020
-
- [4] Recent developments in the ABINIT software package.
- Computer Phys. Comm. 205, 106 (2016).
- X.Gonze, F.Jollet, F.Abreu Araujo, D.Adams, B.Amadon, T.Applencourt,
- C.Audouze, J.-M.Beuken, J.Bieder, A.Bokhanchuk, E.Bousquet, F.Bruneval
- D.Caliste, M.Cote, F.Dahm, F.Da Pieve, M.Delaveau, M.Di Gennaro,
- B.Dorado, C.Espejo, G.Geneste, L.Genovese, A.Gerossier, M.Giantomassi,
- Y.Gillet, D.R.Hamann, L.He, G.Jomard, J.Laflamme Janssen, S.Le Roux,
- A.Levitt, A.Lherbier, F.Liu, I.Lukacevic, A.Martin, C.Martins,
- M.J.T.Oliveira, S.Ponce, Y.Pouillon, T.Rangel, G.-M.Rignanese,
- A.H.Romero, B.Rousseau, O.Rubel, A.A.Shukri, M.Stankovski, M.Torrent,
- M.J.Van Setten, B.Van Troeye, M.J.Verstraete, D.Waroquier, J.Wiktor,
- B.Xu, A.Zhou, J.W.Zwanziger.
- Comment: the fourth generic paper describing the ABINIT project.
- Note that a version of this paper, that is not formatted for Computer Phys. Comm. 
- is available at https://www.abinit.org/sites/default/files/ABINIT16.pdf .
- The licence allows the authors to put it on the Web.
- DOI and bibtex: see https://docs.abinit.org/theory/bibliography/#gonze2016
-
- And optionally:
-
- [5] ABINIT: First-principles approach of materials and nanosystem properties.
- Computer Phys. Comm. 180, 2582-2615 (2009).
- X. Gonze, B. Amadon, P.-M. Anglade, J.-M. Beuken, F. Bottin, P. Boulanger, F. Bruneval,
- D. Caliste, R. Caracas, M. Cote, T. Deutsch, L. Genovese, Ph. Ghosez, M. Giantomassi
- S. Goedecker, D.R. Hamann, P. Hermet, F. Jollet, G. Jomard, S. Leroux, M. Mancini, S. Mazevet,
- M.J.T. Oliveira, G. Onida, Y. Pouillon, T. Rangel, G.-M. Rignanese, D. Sangalli, R. Shaltaf,
- M. Torrent, M.J. Verstraete, G. Zerah, J.W. Zwanziger
- Comment: the third generic paper describing the ABINIT project.
- Note that a version of this paper, that is not formatted for Computer Phys. Comm. 
- is available at https://www.abinit.org/sites/default/files/ABINIT_CPC_v10.pdf .
- The licence allows the authors to put it on the Web.
- DOI and bibtex: see https://docs.abinit.org/theory/bibliography/#gonze2009
-
- Proc.   0 individual time (sec): cpu=        106.9  wall=        107.4
 
================================================================================
 
 Calculation completed.
.Delivered   0 WARNINGs and   2 COMMENTs to log file.
+Overall time at end (sec) : cpu=       3435.4  wall=       3435.8
