
.Version 9.4.2 of ABINIT 
.(MPI version, prepared for a x86_64_linux_intel19.0 computer) 

.Copyright (C) 1998-2021 ABINIT group . 
 ABINIT comes with ABSOLUTELY NO WARRANTY.
 It is free software, and you are welcome to redistribute it
 under certain conditions (GNU General Public License,
 see ~abinit/COPYING or http://www.gnu.org/copyleft/gpl.txt).

 ABINIT is a project of the Universite Catholique de Louvain,
 Corning Inc. and other collaborators, see ~abinit/doc/developers/contributors.txt .
 Please read https://docs.abinit.org/theory/acknowledgments for suggested
 acknowledgments of the ABINIT effort.
 For more information, see https://www.abinit.org .

.Starting date : Sun 20 Jun 2021.
- ( at 20h01 )
  
- input  file    -> /p/work1/jiahaoz/HfO4/CUBIC_ITERATE/iterone/P0.02/scf10
- output file    -> /p/work1/jiahaoz/HfO4/CUBIC_ITERATE/iterone/P0.02/scf10.abo
- root for input  files -> i
- root for output files -> o
 
 
 DATASET    1 : space group P2 (#  3); Bravais mP (primitive monocl.)
================================================================================
 Values of the parameters that define the memory need for DATASET  1.
     intxc =       0    ionmov =       0      iscf =       7    lmnmax =       8
     lnmax =       8     mgfft =      45  mpssoang =       4    mqgrid =    3001
     natom =      12  nloc_mem =       1    nspden =       1   nspinor =       1
    nsppol =       1      nsym =       2    n1xccc =    2501    ntypat =       2
    occopt =       1   xclevel =       2
-    mband =          48        mffmem =           1         mkmem =           4
       mpw =        5294          nfft =       91125          nkpt =         112
================================================================================
P This job should need less than                      46.953 Mbytes of memory.
  Rough estimation (10% accuracy) of disk space for files :
_ WF disk file :    434.275 Mbytes ; DEN or POT disk file :      0.697 Mbytes.
================================================================================
 
 
 DATASET    2 : space group P2 (#  3); Bravais mP (primitive monocl.)
================================================================================
 Values of the parameters that define the memory need for DATASET  2.
     intxc =       0    ionmov =       0      iscf =       7    lmnmax =       8
     lnmax =       8     mgfft =      45  mpssoang =       4    mqgrid =    3001
     natom =      12  nloc_mem =       1    nspden =       1   nspinor =       1
    nsppol =       1      nsym =       2    n1xccc =    2501    ntypat =       2
    occopt =       1   xclevel =       2
-    mband =          48        mffmem =           1         mkmem =           4
       mpw =        5294          nfft =       91125          nkpt =         112
================================================================================
P This job should need less than                      46.953 Mbytes of memory.
  Rough estimation (10% accuracy) of disk space for files :
_ WF disk file :    434.275 Mbytes ; DEN or POT disk file :      0.697 Mbytes.
================================================================================
 
--------------------------------------------------------------------------------
------------- Echo of variables that govern the present computation ------------
--------------------------------------------------------------------------------
-
- outvars: echo of selected default values                                      
-   iomode0 =  0 , fftalg0 =512 , wfoptalg0 =  0
-
- outvars: echo of global parameters not present in the input file              
-  max_nthreads =    0
-
 -outvars: echo values of preprocessed input variables --------
            acell      9.5914334888E+00  9.5914334888E+00  9.5914334888E+00 Bohr
              amu      1.78490000E+02  1.59994000E+01
         berryopt1         -1
         berryopt2          4
          chkprim           0
             ecut      2.50000000E+01 Hartree
           ecutsm      5.00000000E-01 Hartree
           efield      5.82636698E-15  4.28503415E-05  1.86998755E-12
-          fftalg         512
           getwfk1          0
           getwfk2          1
           istwfk        1    0    0    1    0    0    0    0    0    0
                         0    0    0    0    0    0    1    0    0    1
                         0    0    0    0    0    0    0    0    0    0
                         0    0    0    0    0    0    0    0    0    0
                         0    0    0    0    0    0    0    0    0    0
                       outvar_i_n : Printing only first  50 k-points.
              ixc          11
           jdtset        1    2
              kpt      0.00000000E+00  0.00000000E+00  0.00000000E+00
                       1.66666667E-01  0.00000000E+00  0.00000000E+00
                       3.33333333E-01  0.00000000E+00  0.00000000E+00
                       5.00000000E-01  0.00000000E+00  0.00000000E+00
                       0.00000000E+00  1.66666667E-01  0.00000000E+00
                       1.66666667E-01  1.66666667E-01  0.00000000E+00
                       3.33333333E-01  1.66666667E-01  0.00000000E+00
                       5.00000000E-01  1.66666667E-01  0.00000000E+00
                      -3.33333333E-01  1.66666667E-01  0.00000000E+00
                      -1.66666667E-01  1.66666667E-01  0.00000000E+00
                       0.00000000E+00  3.33333333E-01  0.00000000E+00
                       1.66666667E-01  3.33333333E-01  0.00000000E+00
                       3.33333333E-01  3.33333333E-01  0.00000000E+00
                       5.00000000E-01  3.33333333E-01  0.00000000E+00
                      -3.33333333E-01  3.33333333E-01  0.00000000E+00
                      -1.66666667E-01  3.33333333E-01  0.00000000E+00
                       0.00000000E+00  5.00000000E-01  0.00000000E+00
                       1.66666667E-01  5.00000000E-01  0.00000000E+00
                       3.33333333E-01  5.00000000E-01  0.00000000E+00
                       5.00000000E-01  5.00000000E-01  0.00000000E+00
                       0.00000000E+00  0.00000000E+00  1.66666667E-01
                       1.66666667E-01  0.00000000E+00  1.66666667E-01
                       3.33333333E-01  0.00000000E+00  1.66666667E-01
                       5.00000000E-01  0.00000000E+00  1.66666667E-01
                      -3.33333333E-01  0.00000000E+00  1.66666667E-01
                      -1.66666667E-01  0.00000000E+00  1.66666667E-01
                       0.00000000E+00  1.66666667E-01  1.66666667E-01
                       1.66666667E-01  1.66666667E-01  1.66666667E-01
                       3.33333333E-01  1.66666667E-01  1.66666667E-01
                       5.00000000E-01  1.66666667E-01  1.66666667E-01
                      -3.33333333E-01  1.66666667E-01  1.66666667E-01
                      -1.66666667E-01  1.66666667E-01  1.66666667E-01
                       0.00000000E+00  3.33333333E-01  1.66666667E-01
                       1.66666667E-01  3.33333333E-01  1.66666667E-01
                       3.33333333E-01  3.33333333E-01  1.66666667E-01
                       5.00000000E-01  3.33333333E-01  1.66666667E-01
                      -3.33333333E-01  3.33333333E-01  1.66666667E-01
                      -1.66666667E-01  3.33333333E-01  1.66666667E-01
                       0.00000000E+00  5.00000000E-01  1.66666667E-01
                       1.66666667E-01  5.00000000E-01  1.66666667E-01
                       3.33333333E-01  5.00000000E-01  1.66666667E-01
                       5.00000000E-01  5.00000000E-01  1.66666667E-01
                      -3.33333333E-01  5.00000000E-01  1.66666667E-01
                      -1.66666667E-01  5.00000000E-01  1.66666667E-01
                       0.00000000E+00 -3.33333333E-01  1.66666667E-01
                       1.66666667E-01 -3.33333333E-01  1.66666667E-01
                       3.33333333E-01 -3.33333333E-01  1.66666667E-01
                       5.00000000E-01 -3.33333333E-01  1.66666667E-01
                      -3.33333333E-01 -3.33333333E-01  1.66666667E-01
                      -1.66666667E-01 -3.33333333E-01  1.66666667E-01
                       outvar_i_n : Printing only first  50 k-points.
           kptopt           2
         kptrlatt        6    0    0      0    6    0      0    0    6
          kptrlen      5.75486009E+01
P           mkmem           4
            natom          12
            nband          48
           ndtset           2
            ngfft          45      45      45
             nkpt         112
            nstep         100
             nsym           2
           ntypat           2
              occ      2.000000  2.000000  2.000000  2.000000  2.000000  2.000000
                       2.000000  2.000000  2.000000  2.000000  2.000000  2.000000
                       2.000000  2.000000  2.000000  2.000000  2.000000  2.000000
                       2.000000  2.000000  2.000000  2.000000  2.000000  2.000000
                       2.000000  2.000000  2.000000  2.000000  2.000000  2.000000
                       2.000000  2.000000  2.000000  2.000000  2.000000  2.000000
                       2.000000  2.000000  2.000000  2.000000  2.000000  2.000000
                       2.000000  2.000000  2.000000  2.000000  2.000000  2.000000
        pawecutdg      2.50000000E+01 Hartree
         pawxcdev           0
            rfdir1          1       1       1
            rfdir2          0       0       0
          spgroup           3
        symmorphi           0
           symrel      1  0  0   0  1  0   0  0  1      -1  0  0   0  1  0   0  0 -1
           toldfe      1.00000000E-10 Hartree
           tolmxf      1.00000000E-05
           tsmear      4.00000000E-02 Hartree
            typat      1  1  1  1  2  2  2  2  2  2  2  2
              wtk        0.00463    0.00926    0.00926    0.00463    0.00926    0.00926
                         0.00926    0.00926    0.00926    0.00926    0.00926    0.00926
                         0.00926    0.00926    0.00926    0.00926    0.00463    0.00926
                         0.00926    0.00463    0.00926    0.00926    0.00926    0.00926
                         0.00926    0.00926    0.00926    0.00926    0.00926    0.00926
                         0.00926    0.00926    0.00926    0.00926    0.00926    0.00926
                         0.00926    0.00926    0.00926    0.00926    0.00926    0.00926
                         0.00926    0.00926    0.00926    0.00926    0.00926    0.00926
                         0.00926    0.00926
                       outvars : Printing only first  50 k-points.
           xangst      0.0000000000E+00  8.3736720864E-03  0.0000000000E+00
                       2.5377840000E+00  2.5461554388E+00  0.0000000000E+00
                       0.0000000000E+00  2.5461689906E+00  2.5377840000E+00
                       2.5377840000E+00  8.3760068477E-03  2.5377840000E+00
                       1.2753305103E+00  1.2688525121E+00  1.0233146520E+00
                       1.2623916693E+00  1.2686420790E+00  3.5611034738E+00
                       3.8129640197E+00  3.8064837375E+00  1.0233264273E+00
                       3.8004564497E+00  3.8067100063E+00  3.5611181422E+00
                       1.2751115503E+00  3.8067100063E+00  1.5144498578E+00
                       1.2626039803E+00  3.8064837375E+00  4.0522415727E+00
                       3.8131763307E+00  1.2686420790E+00  1.5144645262E+00
                       3.8002374897E+00  1.2688525121E+00  4.0522533480E+00
            xcart      0.0000000000E+00  1.5823946970E-02  0.0000000000E+00
                       4.7957167444E+00  4.8115364712E+00  0.0000000000E+00
                       0.0000000000E+00  4.8115620803E+00  4.7957167444E+00
                       4.7957167444E+00  1.5828359029E-02  4.7957167444E+00
                       2.4100253933E+00  2.3977837509E+00  1.9337844401E+00
                       2.3855745274E+00  2.3973860900E+00  6.7295102964E+00
                       7.2054577517E+00  7.1932117931E+00  1.9338066922E+00
                       7.1818218699E+00  7.1936393792E+00  6.7295380156E+00
                       2.4096116189E+00  7.1936393792E+00  2.8618954732E+00
                       2.3859757371E+00  7.1932117931E+00  7.6576267966E+00
                       7.2058589614E+00  2.3973860900E+00  2.8619231925E+00
                       7.1814080955E+00  2.3977837509E+00  7.6576490488E+00
             xred      0.0000000000E+00  1.6498000000E-03  0.0000000000E+00
                       5.0000000000E-01  5.0164936000E-01  0.0000000000E+00
                       0.0000000000E+00  5.0165203000E-01  5.0000000000E-01
                       5.0000000000E-01  1.6502600000E-03  5.0000000000E-01
                       2.5126853000E-01  2.4999222000E-01  2.0161579000E-01
                       2.4871929000E-01  2.4995076000E-01  7.0161674000E-01
                       7.5123888000E-01  7.4996212000E-01  2.0161811000E-01
                       7.4877461000E-01  7.5000670000E-01  7.0161963000E-01
                       2.5122539000E-01  7.5000670000E-01  2.9838037000E-01
                       2.4876112000E-01  7.4996212000E-01  7.9838189000E-01
                       7.5128071000E-01  2.4995076000E-01  2.9838326000E-01
                       7.4873147000E-01  2.4999222000E-01  7.9838421000E-01
            znucl       72.00000    8.00000
 
================================================================================
 
 chkinp: Checking input parameters for consistency, jdtset=   1.
 
 chkinp: Checking input parameters for consistency, jdtset=   2.
 
================================================================================
== DATASET  1 ==================================================================
-   mpi_nproc: 32, omp_nthreads: -1 (-1 if OMP is not activated)
-    --> not optimal distribution: autoparal keyword recommended in input file <--
 

--- !DatasetInfo
iteration_state: {dtset: 1, }
dimensions: {natom: 12, nkpt: 112, mband: 48, nsppol: 1, nspinor: 1, nspden: 1, mpw: 5294, }
cutoff_energies: {ecut:  25.0, pawecutdg:  25.0, }
electrons: {nelect:   9.60000000E+01, charge:   0.00000000E+00, occopt:   1.00000000E+00, tsmear:   4.00000000E-02, }
meta: {optdriver: 0, ionmov: 0, optcell: 0, iscf: 7, paral_kgb: 0, }
...

 Exchange-correlation functional for the present dataset will be:
  GGA: Perdew-Burke-Ernzerhof functional - ixc=11
 Citation for XC functional:
  J.P.Perdew, K.Burke, M.Ernzerhof, PRL 77, 3865 (1996)
 
 Real(R)+Recip(G) space primitive vectors, cartesian coordinates (Bohr,Bohr^-1):
 R(1)=  9.5914335  0.0000000  0.0000000  G(1)=  0.1042597  0.0000000  0.0000000
 R(2)=  0.0000000  9.5914335  0.0000000  G(2)=  0.0000000  0.1042597  0.0000000
 R(3)=  0.0000000  0.0000000  9.5914335  G(3)=  0.0000000  0.0000000  0.1042597
 Unit cell volume ucvol=  8.8236964E+02 bohr^3
 Angles (23,13,12)=  9.00000000E+01  9.00000000E+01  9.00000000E+01 degrees
 
 getcut: wavevector=  0.0000  0.0000  0.0000  ngfft=  45  45  45
         ecut(hartree)=     25.000   => boxcut(ratio)=   2.03814
 
--- Pseudopotential description ------------------------------------------------
- pspini: atom type   1  psp file is /p/work1/jiahaoz/HfO4/pbe_s_sr/Hf.psp8
- pspatm: opening atomic psp file    /p/work1/jiahaoz/HfO4/pbe_s_sr/Hf.psp8
- Hf    ONCVPSP  r_core=  1.72  1.72  1.72  2.43
- 72.00000  12.00000    160625                znucl, zion, pspdat
    8   11    3    4       600   0.00000      pspcod,pspxc,lmax,lloc,mmax,r2well
    5.99000000000000    5.40000000000000    0.00000000000000   rchrg,fchrg,qchrg
     nproj     2     2     2     2
     extension_switch     1
  pspatm : epsatm=   21.98649506
         --- l  ekb(1:nproj) -->
             0    5.812335   -0.521211
             1   -3.038329    2.466565
             2    2.060039    0.471534
             3    9.947446    0.353012
 pspatm: atomic psp has been read  and splines computed
 
- pspini: atom type   2  psp file is /p/work1/jiahaoz/HfO4/pbe_s_sr/O.psp8
- pspatm: opening atomic psp file    /p/work1/jiahaoz/HfO4/pbe_s_sr/O.psp8
- O     ONCVPSP  r_core=  1.36  1.46  1.26
-  8.00000   6.00000    151103                znucl, zion, pspdat
    8   11    2    4       600   0.00000      pspcod,pspxc,lmax,lloc,mmax,r2well
    5.99000000000000    4.00000000000000    0.00000000000000   rchrg,fchrg,qchrg
     nproj     2     2     1
     extension_switch     1
  pspatm : epsatm=    6.19401560
         --- l  ekb(1:nproj) -->
             0    5.257212    0.704241
             1   -5.135443   -1.451781
             2   -4.371486
 pspatm: atomic psp has been read  and splines computed
 
   1.31998181E+04                                ecore*ucvol(ha*bohr**3)
--------------------------------------------------------------------------------
 
_setup2: Arith. and geom. avg. npw (full set) are    5268.875    5268.869
  initberry: for direction 1, nkstr =   6, nstr =     36
  initberry: for direction 2, nkstr =   6, nstr =     36
  initberry: for direction 3, nkstr =   6, nstr =     36
 
================================================================================

--- !BeginCycle
iteration_state: {dtset: 1, }
solver: {iscf: 7, nstep: 100, nline: 4, wfoptalg: 0, }
tolerances: {toldfe: 1.00E-10, }
...
 
     iter   Etot(hartree)      deltaE(h)  residm     vres2
 ETOT  1  -357.49783224445    -3.575E+02 3.127E-01 1.115E+03
 ETOT  2  -357.89123796569    -3.934E-01 6.524E-02 1.032E+03
 ETOT  3  -358.60164036902    -7.104E-01 4.253E-03 5.616E+01
 ETOT  4  -358.63416141312    -3.252E-02 9.195E-05 1.301E-01
 ETOT  5  -358.63422615930    -6.475E-05 4.138E-06 6.421E-02
 ETOT  6  -358.63425538909    -2.923E-05 6.472E-07 1.212E-02
 ETOT  7  -358.63426140512    -6.016E-06 6.097E-08 3.624E-04
 ETOT  8  -358.63426144664    -4.152E-08 4.249E-09 2.955E-04
 ETOT  9  -358.63426154637    -9.973E-08 1.672E-09 9.504E-06
 ETOT 10  -358.63426155107    -4.692E-09 2.299E-11 1.205E-07
 ETOT 11  -358.63426155111    -4.150E-11 1.146E-12 2.349E-08
 ETOT 12  -358.63426155112    -8.527E-12 5.870E-14 1.767E-09
 
 At SCF step   12, etot is converged : 
  for the second time, diff in etot=  8.527E-12 < toldfe=  1.000E-10
 
 Computing the polarization (Berry phase) for reciprocal vector:
  0.16667  0.00000  0.00000 (in reduced coordinates)
  0.01738  0.00000  0.00000 (in cartesian coordinates - atomic units)
 Number of strings:    36
 Number of k points in string:    6
 
 Summary of the results
 Electronic Berry phase     8.240155602E-11
            Ionic phase     2.220446049E-16
            Total phase     8.240177806E-11
    Remapping in [-1,1]     8.240177806E-11
 
           Polarization     8.957143746E-13 (a.u. of charge)/bohr^2
           Polarization     5.124808429E-11 C/m^2
 
 
 Computing the polarization (Berry phase) for reciprocal vector:
  0.00000  0.16667  0.00000 (in reduced coordinates)
  0.00000  0.01738  0.00000 (in cartesian coordinates - atomic units)
 Number of strings:    36
 Number of k points in string:    6
 
 Summary of the results
 Electronic Berry phase    -4.720795157E-02
            Ionic phase     7.815900000E-02
            Total phase     3.095104843E-02
    Remapping in [-1,1]     3.095104843E-02
 
           Polarization     3.364405434E-04 (a.u. of charge)/bohr^2
           Polarization     1.924936544E-02 C/m^2
 
 
 Computing the polarization (Berry phase) for reciprocal vector:
  0.00000  0.00000  0.16667 (in reduced coordinates)
  0.00000  0.00000  0.01738 (in cartesian coordinates - atomic units)
 Number of strings:    36
 Number of k points in string:    6
 
 Summary of the results
 Electronic Berry phase    -1.503048599E-10
            Ionic phase     2.220446049E-16
            Total phase    -1.503046379E-10
    Remapping in [-1,1]    -1.503046379E-10
 
           Polarization    -1.633824268E-12 (a.u. of charge)/bohr^2
           Polarization    -9.347886579E-11 C/m^2
 
 
 Polarization in cartesian coordinates (a.u.):
 (the sum of the electronic and ionic Berry phase has been folded into [-1, 1])
     Electronic berry phase:        0.895711961E-12  -0.513154471E-03  -0.163382668E-11
     Ionic:                         0.241364384E-17   0.849595014E-03   0.241364384E-17  
     Total:                         0.895714375E-12   0.336440543E-03  -0.163382427E-11
 
 Polarization in cartesian coordinates (C/m^2):
 (the sum of the electronic and ionic Berry phase has been folded into [-1, 1])
     Electronic berry phase:        0.512479462E-10  -0.293600106E-01  -0.934790039E-10
     Ionic:                         0.138096057E-15   0.486093761E-01   0.138096057E-15  
     Total:                         0.512480843E-10   0.192493654E-01  -0.934788658E-10
 
 Cartesian components of stress tensor (hartree/bohr^3)
  sigma(1 1)= -1.72524818E-04  sigma(3 2)=  0.00000000E+00
  sigma(2 2)= -1.72608057E-04  sigma(3 1)= -9.81760888E-10
  sigma(3 3)= -4.75454441E-04  sigma(2 1)=  0.00000000E+00
 

--- !ResultsGS
iteration_state: {dtset: 1, }
comment   : Summary of ground state results
lattice_vectors:
- [  9.5914335,   0.0000000,   0.0000000, ]
- [  0.0000000,   9.5914335,   0.0000000, ]
- [  0.0000000,   0.0000000,   9.5914335, ]
lattice_lengths: [   9.59143,    9.59143,    9.59143, ]
lattice_angles: [ 90.000,  90.000,  90.000, ] # degrees, (23, 13, 12)
lattice_volume:   8.8236964E+02
convergence: {deltae: -8.527E-12, res2:  1.767E-09, residm:  5.870E-14, diffor: null, }
etotal    :  -3.58634262E+02
entropy   :   0.00000000E+00
fermie    :   2.77133208E-01
cartesian_stress_tensor: # hartree/bohr^3
- [ -1.72524818E-04,   0.00000000E+00,  -9.81760888E-10, ]
- [  0.00000000E+00,  -1.72608057E-04,   0.00000000E+00, ]
- [ -9.81760888E-10,   0.00000000E+00,  -4.75454441E-04, ]
pressure_GPa:   8.0475E+00
xred      :
- [  0.0000E+00,   1.6498E-03,   0.0000E+00, Hf]
- [  5.0000E-01,   5.0165E-01,   0.0000E+00, Hf]
- [  0.0000E+00,   5.0165E-01,   5.0000E-01, Hf]
- [  5.0000E-01,   1.6503E-03,   5.0000E-01, Hf]
- [  2.5127E-01,   2.4999E-01,   2.0162E-01,  O]
- [  2.4872E-01,   2.4995E-01,   7.0162E-01,  O]
- [  7.5124E-01,   7.4996E-01,   2.0162E-01,  O]
- [  7.4877E-01,   7.5001E-01,   7.0162E-01,  O]
- [  2.5123E-01,   7.5001E-01,   2.9838E-01,  O]
- [  2.4876E-01,   7.4996E-01,   7.9838E-01,  O]
- [  7.5128E-01,   2.4995E-01,   2.9838E-01,  O]
- [  7.4873E-01,   2.4999E-01,   7.9838E-01,  O]
cartesian_forces: # hartree/bohr
- [  0.00000000E+00,  -2.38901639E-04,   4.41162993E-24, ]
- [  0.00000000E+00,  -2.37916627E-04,   4.41162993E-24, ]
- [  0.00000000E+00,  -2.37845583E-04,   4.41162993E-24, ]
- [  0.00000000E+00,  -2.38912402E-04,   4.41162993E-24, ]
- [  2.68565584E-05,   1.19188747E-04,  -4.26710842E-07, ]
- [ -2.67642194E-05,   1.19189617E-04,  -7.38983677E-07, ]
- [  2.68200805E-05,   1.19221855E-04,  -5.19799956E-07, ]
- [ -2.67732287E-05,   1.19187907E-04,  -6.29606035E-07, ]
- [  2.67732287E-05,   1.19187907E-04,   6.29606035E-07, ]
- [ -2.68200805E-05,   1.19221855E-04,   5.19799956E-07, ]
- [  2.67642194E-05,   1.19189617E-04,   7.38983677E-07, ]
- [ -2.68565584E-05,   1.19188747E-04,   4.26710842E-07, ]
force_length_stats: {min:   1.22159565E-04, max:   2.38912402E-04, mean:   1.60914634E-04, }
...

 Integrated electronic density in atomic spheres:
 ------------------------------------------------
 Atom  Sphere_radius  Integrated_density
    1        2.00000          8.30453778
    2        2.00000          8.32519152
    3        2.00000          8.32476035
    4        2.00000          8.32046297
    5        2.00000          6.37289068
    6        2.00000          6.36872586
    7        2.00000          6.37551027
    8        2.00000          6.36774292
    9        2.00000          6.36774292
   10        2.00000          6.37551027
   11        2.00000          6.36872586
   12        2.00000          6.37289068
================================================================================
 
 ----iterations are completed or convergence reached----
 
 Mean square residual over all n,k,spin=   20.584E-15; max=  58.704E-15
 reduced coordinates (array xred) for   12 atoms
       0.000000000000      0.001649800000      0.000000000000
       0.500000000000      0.501649360000      0.000000000000
       0.000000000000      0.501652030000      0.500000000000
       0.500000000000      0.001650260000      0.500000000000
       0.251268530000      0.249992220000      0.201615790000
       0.248719290000      0.249950760000      0.701616740000
       0.751238880000      0.749962120000      0.201618110000
       0.748774610000      0.750006700000      0.701619630000
       0.251225390000      0.750006700000      0.298380370000
       0.248761120000      0.749962120000      0.798381890000
       0.751280710000      0.249950760000      0.298383260000
       0.748731470000      0.249992220000      0.798384210000
 rms dE/dt=  9.4133E-04; max dE/dt=  2.2820E-03; dE/dt below (all hartree)
    1       0.000000000000      0.002281885978      0.000000000000
    2       0.000000000000      0.002272438295      0.000000000000
    3       0.000000000000      0.002271756883      0.000000000000
    4       0.000000000000      0.002281989208      0.000000000000
    5      -0.000257592894     -0.001152714143      0.000004092769
    6       0.000256707230     -0.001152722493      0.000007087913
    7      -0.000257243019     -0.001153031696      0.000004985627
    8       0.000256793643     -0.001152706087      0.000006038824
    9      -0.000256793643     -0.001152706087     -0.000006038824
   10       0.000257243019     -0.001153031696     -0.000004985627
   11      -0.000256707230     -0.001152722493     -0.000007087913
   12       0.000257592894     -0.001152714143     -0.000004092769
 
 cartesian coordinates (angstrom) at end:
    1      0.00000000000000     0.00837367208640     0.00000000000000
    2      2.53778400000000     2.54615543883648     0.00000000000000
    3      0.00000000000000     2.54616899060304     2.53778400000000
    4      2.53778400000000     0.00837600684768     2.53778400000000
    5      1.27533051027504     1.26885251208096     1.02331465201872
    6      1.26239166930672     1.26864207903168     3.56110347380832
    7      3.81296401968384     3.80648373748416     1.02332642733648
    8      3.80045644972848     3.80671000630560     3.56111814219984
    9      1.27511155027152     3.80671000630560     1.51444985780016
   10      1.26260398031616     3.80648373748416     4.05224157266352
   11      3.81317633069328     1.26864207903168     1.51446452619168
   12      3.80023748972496     1.26885251208096     4.05225334798128
 
 cartesian forces (hartree/bohr) at end:
    1      0.00000000000000    -0.00023890163940     0.00000000000000
    2      0.00000000000000    -0.00023791662672     0.00000000000000
    3      0.00000000000000    -0.00023784558291     0.00000000000000
    4      0.00000000000000    -0.00023891240207     0.00000000000000
    5      0.00002685655843     0.00011918874671    -0.00000042671084
    6     -0.00002676421940     0.00011918961729    -0.00000073898368
    7      0.00002682008053     0.00011922185473    -0.00000051979996
    8     -0.00002677322872     0.00011918790683    -0.00000062960603
    9      0.00002677322872     0.00011918790683     0.00000062960603
   10     -0.00002682008053     0.00011922185473     0.00000051979996
   11      0.00002676421940     0.00011918961729     0.00000073898368
   12     -0.00002685655843     0.00011918874671     0.00000042671084
 frms,max,avg= 9.8141290E-05 2.3891240E-04   0.000E+00  9.929E-07  0.000E+00 h/b
 
 cartesian forces (eV/Angstrom) at end:
    1      0.00000000000000    -0.01228481519791     0.00000000000000
    2      0.00000000000000    -0.01223416381353     0.00000000000000
    3      0.00000000000000    -0.01223051059435     0.00000000000000
    4      0.00000000000000    -0.01228536863686     0.00000000000000
    5      0.00138101964495     0.00612893126512    -0.00002194235187
    6     -0.00137627138136     0.00612897603195    -0.00003800006534
    7      0.00137914387579     0.00613063374773    -0.00002672918617
    8     -0.00137673465898     0.00612888807652    -0.00003237564130
    9      0.00137673465898     0.00612888807652     0.00003237564130
   10     -0.00137914387579     0.00613063374773     0.00002672918617
   11      0.00137627138136     0.00612897603195     0.00003800006534
   12     -0.00138101964495     0.00612893126512     0.00002194235187
 frms,max,avg= 5.0466276E-03 1.2285369E-02   0.000E+00  5.106E-05  0.000E+00 e/A
 length scales=  9.591433488838  9.591433488838  9.591433488838 bohr
              =  5.075568000000  5.075568000000  5.075568000000 angstroms
 prteigrs : about to open file o_DS1_EIG
 Fermi (or HOMO) energy (hartree) =   0.27713   Average Vxc (hartree)=  -0.44601
 Eigenvalues (hartree) for nkpt= 112  k points:
 kpt#   1, nband= 48, wtk=  0.00463, kpt=  0.0000  0.0000  0.0000 (reduced coord)
  -1.94369   -1.94303   -1.94300   -1.94299   -0.80523   -0.80523   -0.80489   -0.79314
  -0.79312   -0.79281   -0.79279   -0.79147   -0.79147   -0.78861   -0.78698   -0.78698
  -0.39505   -0.33819   -0.32893   -0.32892   -0.31889   -0.31582   -0.31581   -0.29681
   0.06030    0.06030    0.07167    0.09588    0.10258    0.10258    0.16423    0.16430
   0.16650    0.16657    0.17273    0.17273    0.22365    0.22370    0.22840    0.22846
   0.24954    0.24965    0.25531    0.25533    0.25952    0.26628    0.26634    0.27519
 prteigrs : prtvol=0 or 1, do not print more k-points.
 

--- !EnergyTerms
iteration_state     : {dtset: 1, }
comment             : Components of total free energy in Hartree
kinetic             :  1.46191758184882E+02
hartree             :  5.59171050355930E+01
xc                  : -9.09039900792143E+01
Ewald energy        : -2.70165706534360E+02
psp_core            :  1.49595106529080E+01
local_psp           : -2.05520264852625E+02
non_local_psp       : -9.11267395829820E+00
total_energy        : -3.58634261551115E+02
total_energy_eV     : -9.75893455641503E+03
band_energy         : -3.10955813503372E+01
...

 
 Cartesian components of stress tensor (hartree/bohr^3)
  sigma(1 1)= -1.72524818E-04  sigma(3 2)=  0.00000000E+00
  sigma(2 2)= -1.72608057E-04  sigma(3 1)= -9.81760888E-10
  sigma(3 3)= -4.75454441E-04  sigma(2 1)=  0.00000000E+00
 
-Cartesian components of stress tensor (GPa)         [Pressure=  8.0475E+00 GPa]
- sigma(1 1)= -5.07585454E+00  sigma(3 2)=  0.00000000E+00
- sigma(2 2)= -5.07830350E+00  sigma(3 1)= -2.88843977E-05
- sigma(3 3)= -1.39883502E+01  sigma(2 1)=  0.00000000E+00
 
================================================================================
== DATASET  2 ==================================================================
-   mpi_nproc: 32, omp_nthreads: -1 (-1 if OMP is not activated)
-    --> not optimal distribution: autoparal keyword recommended in input file <--
 

--- !DatasetInfo
iteration_state: {dtset: 2, }
dimensions: {natom: 12, nkpt: 112, mband: 48, nsppol: 1, nspinor: 1, nspden: 1, mpw: 5294, }
cutoff_energies: {ecut:  25.0, pawecutdg:  25.0, }
electrons: {nelect:   9.60000000E+01, charge:   0.00000000E+00, occopt:   1.00000000E+00, tsmear:   4.00000000E-02, }
meta: {optdriver: 0, ionmov: 0, optcell: 0, iscf: 7, paral_kgb: 0, }
...

 mkfilename : getwfk/=0, take file _WFK from output of DATASET   1.
 
 Exchange-correlation functional for the present dataset will be:
  GGA: Perdew-Burke-Ernzerhof functional - ixc=11
 Citation for XC functional:
  J.P.Perdew, K.Burke, M.Ernzerhof, PRL 77, 3865 (1996)
 
 Real(R)+Recip(G) space primitive vectors, cartesian coordinates (Bohr,Bohr^-1):
 R(1)=  9.5914335  0.0000000  0.0000000  G(1)=  0.1042597  0.0000000  0.0000000
 R(2)=  0.0000000  9.5914335  0.0000000  G(2)=  0.0000000  0.1042597  0.0000000
 R(3)=  0.0000000  0.0000000  9.5914335  G(3)=  0.0000000  0.0000000  0.1042597
 Unit cell volume ucvol=  8.8236964E+02 bohr^3
 Angles (23,13,12)=  9.00000000E+01  9.00000000E+01  9.00000000E+01 degrees
 
 getcut: wavevector=  0.0000  0.0000  0.0000  ngfft=  45  45  45
         ecut(hartree)=     25.000   => boxcut(ratio)=   2.03814
--------------------------------------------------------------------------------
 
-inwffil : will read wavefunctions from disk file o_DS1_WFK
_setup2: Arith. and geom. avg. npw (full set) are    5268.875    5268.869
  initberry: for direction 1, nkstr =   6, nstr =     36
  initberry: for direction 2, nkstr =   6, nstr =     36
  initberry: for direction 3, nkstr =   6, nstr =     36
 
 initberry: COMMENT - 
  As a rough estimate,
  to be below the critical field, the bandgap of your system
  should be larger than    0.07 eV.
 
 
================================================================================

--- !BeginCycle
iteration_state: {dtset: 2, }
solver: {iscf: 7, nstep: 100, nline: 4, wfoptalg: 0, }
tolerances: {toldfe: 1.00E-10, }
...
 
     iter   Etot(hartree)      deltaE(h)  residm     vres2
 ETOT  1  -358.63427459618    -3.586E+02 1.383E-08 1.162E-05
 ETOT  2  -358.63427459962    -3.434E-09 1.384E-08 2.828E-07
 ETOT  3  -358.63427459975    -1.303E-10 1.387E-08 4.670E-08
 ETOT  4  -358.63427459976    -1.268E-11 1.385E-08 1.378E-08
 ETOT  5  -358.63427459977    -4.661E-12 1.385E-08 2.426E-09
 
 At SCF step    5, etot is converged : 
  for the second time, diff in etot=  4.661E-12 < toldfe=  1.000E-10
 
 Computing the polarization (Berry phase) for reciprocal vector:
  0.16667  0.00000  0.00000 (in reduced coordinates)
  0.01738  0.00000  0.00000 (in cartesian coordinates - atomic units)
 Number of strings:    36
 Number of k points in string:    6
 
 Summary of the results
 Electronic Berry phase     2.923955028E-12
            Ionic phase     2.220446049E-16
            Total phase     2.924177073E-12
    Remapping in [-1,1]     2.924177073E-12
 
           Polarization     3.178605486E-14 (a.u. of charge)/bohr^2
           Polarization     1.818631547E-12 C/m^2
 
 
 Computing the polarization (Berry phase) for reciprocal vector:
  0.00000  0.16667  0.00000 (in reduced coordinates)
  0.00000  0.01738  0.00000 (in cartesian coordinates - atomic units)
 Number of strings:    36
 Number of k points in string:    6
 
 Summary of the results
 Electronic Berry phase    -4.592610287E-02
            Ionic phase     7.815900000E-02
            Total phase     3.223289713E-02
    Remapping in [-1,1]     3.223289713E-02
 
           Polarization     3.503743484E-04 (a.u. of charge)/bohr^2
           Polarization     2.004658477E-02 C/m^2
 
 
 Computing the polarization (Berry phase) for reciprocal vector:
  0.00000  0.00000  0.16667 (in reduced coordinates)
  0.00000  0.00000  0.01738 (in cartesian coordinates - atomic units)
 Number of strings:    36
 Number of k points in string:    6
 
 Summary of the results
 Electronic Berry phase     1.122241937E-11
            Ionic phase     2.220446049E-16
            Total phase     1.122264142E-11
    Remapping in [-1,1]     1.122264142E-11
 
           Polarization     1.219910720E-13 (a.u. of charge)/bohr^2
           Polarization     6.979690085E-12 C/m^2
 
 
 Polarization in cartesian coordinates (a.u.):
 (the sum of the electronic and ionic Berry phase has been folded into [-1, 1])
     Electronic berry phase:        0.317836412E-13  -0.499220666E-03   0.121988658E-12
     Ionic:                         0.241364384E-17   0.849595014E-03   0.241364384E-17  
     Total:                         0.317860549E-13   0.350374348E-03   0.121991072E-12
 
 Polarization in cartesian coordinates (C/m^2):
 (the sum of the electronic and ionic Berry phase has been folded into [-1, 1])
     Electronic berry phase:        0.181849345E-11  -0.285627913E-01   0.697955199E-11
     Ionic:                         0.138096057E-15   0.486093761E-01   0.138096057E-15  
     Total:                         0.181863155E-11   0.200465848E-01   0.697969008E-11
 
 Stress tensor under a constant electric field:
 
 Cartesian components of Maxwell stress tensor (hartree/bohr^3)
 Maxstr(1 1)= -5.81378346E-12 Maxstr(3 2)=  5.07426653E-19
 Maxstr(2 2)=  5.81378346E-12 Maxstr(3 1)=  6.89948736E-29
 Maxstr(3 3)= -5.81378346E-12 Maxstr(2 1)=  1.58100191E-21
 
 
 Cartesian components of stress tensor (hartree/bohr^3)
  sigma(1 1)= -1.72516883E-04  sigma(3 2)=  0.00000000E+00
  sigma(2 2)= -1.72629387E-04  sigma(3 1)= -9.20965111E-10
  sigma(3 3)= -4.75448891E-04  sigma(2 1)=  0.00000000E+00
 

--- !ResultsGS
iteration_state: {dtset: 2, }
comment   : Summary of ground state results
lattice_vectors:
- [  9.5914335,   0.0000000,   0.0000000, ]
- [  0.0000000,   9.5914335,   0.0000000, ]
- [  0.0000000,   0.0000000,   9.5914335, ]
lattice_lengths: [   9.59143,    9.59143,    9.59143, ]
lattice_angles: [ 90.000,  90.000,  90.000, ] # degrees, (23, 13, 12)
lattice_volume:   8.8236964E+02
convergence: {deltae: -4.661E-12, res2:  2.426E-09, residm:  1.385E-08, diffor: null, }
etotal    :  -3.58634275E+02
entropy   :   0.00000000E+00
fermie    :   2.77133098E-01
cartesian_stress_tensor: # hartree/bohr^3
- [ -1.72516883E-04,   0.00000000E+00,  -9.20965111E-10, ]
- [  0.00000000E+00,  -1.72629387E-04,   0.00000000E+00, ]
- [ -9.20965111E-10,   0.00000000E+00,  -4.75448891E-04, ]
pressure_GPa:   8.0476E+00
xred      :
- [  0.0000E+00,   1.6498E-03,   0.0000E+00, Hf]
- [  5.0000E-01,   5.0165E-01,   0.0000E+00, Hf]
- [  0.0000E+00,   5.0165E-01,   5.0000E-01, Hf]
- [  5.0000E-01,   1.6503E-03,   5.0000E-01, Hf]
- [  2.5127E-01,   2.4999E-01,   2.0162E-01,  O]
- [  2.4872E-01,   2.4995E-01,   7.0162E-01,  O]
- [  7.5124E-01,   7.4996E-01,   2.0162E-01,  O]
- [  7.4877E-01,   7.5001E-01,   7.0162E-01,  O]
- [  2.5123E-01,   7.5001E-01,   2.9838E-01,  O]
- [  2.4876E-01,   7.4996E-01,   7.9838E-01,  O]
- [  7.5128E-01,   2.4995E-01,   2.9838E-01,  O]
- [  7.4873E-01,   2.4999E-01,   7.9838E-01,  O]
cartesian_forces: # hartree/bohr
- [  3.44658589E-26,   2.35434589E-09,   0.00000000E+00, ]
- [  3.44658589E-26,  -9.06946560E-09,   0.00000000E+00, ]
- [  3.44658589E-26,  -5.73276745E-09,   0.00000000E+00, ]
- [  3.44658589E-26,  -5.94000922E-10,   0.00000000E+00, ]
- [ -3.67186379E-09,   3.40333037E-09,   7.59026824E-09, ]
- [ -7.77528378E-09,   7.91790122E-09,  -8.44121112E-09, ]
- [  7.50463754E-09,   1.21660102E-09,   5.12376997E-09, ]
- [  5.19919922E-09,  -6.01688857E-09,  -6.66172154E-09, ]
- [ -5.19919922E-09,  -6.01688857E-09,   6.66172154E-09, ]
- [ -7.50463754E-09,   1.21660102E-09,  -5.12376997E-09, ]
- [  7.77528378E-09,   7.91790122E-09,   8.44121112E-09, ]
- [  3.67186379E-09,   3.40333037E-09,  -7.59026824E-09, ]
force_length_stats: {min:   5.94000922E-10, max:   1.39428205E-08, mean:   8.57542094E-09, }
...

 Integrated electronic density in atomic spheres:
 ------------------------------------------------
 Atom  Sphere_radius  Integrated_density
    1        2.00000          8.30453844
    2        2.00000          8.32519257
    3        2.00000          8.32476129
    4        2.00000          8.32046411
    5        2.00000          6.37289056
    6        2.00000          6.36872481
    7        2.00000          6.37551117
    8        2.00000          6.36774382
    9        2.00000          6.36774382
   10        2.00000          6.37551117
   11        2.00000          6.36872481
   12        2.00000          6.37289056
================================================================================
 
 ----iterations are completed or convergence reached----
 
 Mean square residual over all n,k,spin=   12.594E-10; max=  13.852E-09
 reduced coordinates (array xred) for   12 atoms
       0.000000000000      0.001649800000      0.000000000000
       0.500000000000      0.501649360000      0.000000000000
       0.000000000000      0.501652030000      0.500000000000
       0.500000000000      0.001650260000      0.500000000000
       0.251268530000      0.249992220000      0.201615790000
       0.248719290000      0.249950760000      0.701616740000
       0.751238880000      0.749962120000      0.201618110000
       0.748774610000      0.750006700000      0.701619630000
       0.251225390000      0.750006700000      0.298380370000
       0.248761120000      0.749962120000      0.798381890000
       0.751280710000      0.249950760000      0.298383260000
       0.748731470000      0.249992220000      0.798384210000
 rms dE/dt=  5.3718E-06; max dE/dt=  8.0963E-08; dE/dt below (all hartree)
    1       0.000000000000     -0.000009326431      0.000000000000
    2       0.000000000000     -0.000009216861      0.000000000000
    3       0.000000000000     -0.000009248864      0.000000000000
    4       0.000000000000     -0.000009298152      0.000000000000
    5       0.000000035218     -0.000009336493     -0.000000072802
    6       0.000000074576     -0.000009379794      0.000000080963
    7      -0.000000071980     -0.000009315519     -0.000000049144
    8      -0.000000049868     -0.000009246139      0.000000063895
    9       0.000000049868     -0.000009246139     -0.000000063895
   10       0.000000071980     -0.000009315519      0.000000049144
   11      -0.000000074576     -0.000009379794     -0.000000080963
   12      -0.000000035218     -0.000009336493      0.000000072802
 
 cartesian coordinates (angstrom) at end:
    1      0.00000000000000     0.00837367208640     0.00000000000000
    2      2.53778400000000     2.54615543883648     0.00000000000000
    3      0.00000000000000     2.54616899060304     2.53778400000000
    4      2.53778400000000     0.00837600684768     2.53778400000000
    5      1.27533051027504     1.26885251208096     1.02331465201872
    6      1.26239166930672     1.26864207903168     3.56110347380832
    7      3.81296401968384     3.80648373748416     1.02332642733648
    8      3.80045644972848     3.80671000630560     3.56111814219984
    9      1.27511155027152     3.80671000630560     1.51444985780016
   10      1.26260398031616     3.80648373748416     4.05224157266352
   11      3.81317633069328     1.26864207903168     1.51446452619168
   12      3.80023748972496     1.26885251208096     4.05225334798128
 
 cartesian forces (hartree/bohr) at end:
    1      0.00000000000000     0.00000000235435     0.00000000000000
    2      0.00000000000000    -0.00000000906947     0.00000000000000
    3      0.00000000000000    -0.00000000573277     0.00000000000000
    4      0.00000000000000    -0.00000000059400     0.00000000000000
    5     -0.00000000367186     0.00000000340333     0.00000000759027
    6     -0.00000000777528     0.00000000791790    -0.00000000844121
    7      0.00000000750464     0.00000000121660     0.00000000512377
    8      0.00000000519920    -0.00000000601689    -0.00000000666172
    9     -0.00000000519920    -0.00000000601689     0.00000000666172
   10     -0.00000000750464     0.00000000121660    -0.00000000512377
   11      0.00000000777528     0.00000000791790     0.00000000844121
   12      0.00000000367186     0.00000000340333    -0.00000000759027
 frms,max,avg= 5.4224499E-09 9.0694656E-09   0.000E+00  9.700E-07  0.000E+00 h/b
 
 cartesian forces (eV/Angstrom) at end:
    1      0.00000000000000     0.00000012106532     0.00000000000000
    2      0.00000000000000    -0.00000046637063     0.00000000000000
    3      0.00000000000000    -0.00000029479073     0.00000000000000
    4      0.00000000000000    -0.00000003054475     0.00000000000000
    5     -0.00000018881481     0.00000017500627     0.00000039030725
    6     -0.00000039982113     0.00000040715482    -0.00000043406449
    7      0.00000038590395     0.00000006256013     0.00000026347482
    8      0.00000026735355    -0.00000030940082    -0.00000034255947
    9     -0.00000026735355    -0.00000030940082     0.00000034255947
   10     -0.00000038590395     0.00000006256013    -0.00000026347482
   11      0.00000039982113     0.00000040715482     0.00000043406449
   12      0.00000018881481     0.00000017500627    -0.00000039030725
 frms,max,avg= 2.7883356E-07 4.6637063E-07   0.000E+00  4.988E-05  0.000E+00 e/A
 length scales=  9.591433488838  9.591433488838  9.591433488838 bohr
              =  5.075568000000  5.075568000000  5.075568000000 angstroms
 prteigrs : about to open file o_DS2_EIG
 Fermi (or HOMO) energy (hartree) =   0.27713   Average Vxc (hartree)=  -0.44601
 Eigenvalues (hartree) for nkpt= 112  k points:
 kpt#   1, nband= 48, wtk=  0.00463, kpt=  0.0000  0.0000  0.0000 (reduced coord)
  -1.94369   -1.94303   -1.94300   -1.94299   -0.80523   -0.80523   -0.80489   -0.79314
  -0.79312   -0.79281   -0.79279   -0.79147   -0.79147   -0.78861   -0.78698   -0.78698
  -0.39505   -0.33819   -0.32893   -0.32892   -0.31889   -0.31582   -0.31581   -0.29681
   0.06030    0.06030    0.07167    0.09588    0.10258    0.10258    0.16423    0.16430
   0.16650    0.16657    0.17273    0.17273    0.22365    0.22370    0.22840    0.22846
   0.24954    0.24965    0.25531    0.25533    0.25952    0.26628    0.26634    0.27519
 prteigrs : prtvol=0 or 1, do not print more k-points.
 

--- !EnergyTerms
iteration_state     : {dtset: 2, }
comment             : Components of total free energy in Hartree
kinetic             :  1.46191768127605E+02
hartree             :  5.59171120818393E+01
xc                  : -9.09039918063456E+01
Ewald energy        : -2.70165706534360E+02
psp_core            :  1.49595106529080E+01
local_psp           : -2.05520277204420E+02
non_local_psp       : -9.11267660492970E+00
electric            : -1.33120625603365E-05
kohn_sham           : -3.58634261287704E+02
total_energy        : -3.58634274599766E+02
total_energy_eV     : -9.75893491148688E+03
band_energy         : -3.10955780187941E+01
...

 
Constant unreduced E calculation  - final values:
 (a. u.)
       E:   5.826366981E-15   4.285034152E-05   1.869987552E-12  
       P:   3.178605486E-14   3.503743484E-04   1.219910720E-13
 
    ebar:   5.588321138E-14   4.109962007E-04   1.793586123E-11  
    pbar:   3.831157552E-12   4.223044781E-02   1.470352388E-11
 
       e:   4.265353311E-14   3.136977926E-04   1.368976177E-11  
       p:   2.924177073E-12   3.223289713E-02   1.122264142E-11
 
 (S.I.), that is V/m for E, and C/m^2 for P
-      E:   2.996038111E-03   2.203452970E+07   9.615861807E-01  
       P:   1.818631547E-12   2.004658477E-02   6.979690085E-12  
 
 
 Please check: COMMENT - 
  As a rough estimate,
  to be below the critical field, the bandgap of your system
  should be larger than    0.07 eV.
 
--------------------------------------------------------------------------------
 
 Cartesian components of stress tensor (hartree/bohr^3)
  sigma(1 1)= -1.72516883E-04  sigma(3 2)=  0.00000000E+00
  sigma(2 2)= -1.72629387E-04  sigma(3 1)= -9.20965111E-10
  sigma(3 3)= -4.75448891E-04  sigma(2 1)=  0.00000000E+00
 
-Cartesian components of stress tensor (GPa)         [Pressure=  8.0476E+00 GPa]
- sigma(1 1)= -5.07562107E+00  sigma(3 2)=  0.00000000E+00
- sigma(2 2)= -5.07893106E+00  sigma(3 1)= -2.70957245E-05
- sigma(3 3)= -1.39881870E+01  sigma(2 1)=  0.00000000E+00
 
== END DATASET(S) ==============================================================
================================================================================
  
 -outvars: echo values of variables after computation  --------
            acell      9.5914334888E+00  9.5914334888E+00  9.5914334888E+00 Bohr
              amu      1.78490000E+02  1.59994000E+01
         berryopt1         -1
         berryopt2          4
          chkprim           0
             ecut      2.50000000E+01 Hartree
           ecutsm      5.00000000E-01 Hartree
           efield      5.82636698E-15  4.28503415E-05  1.86998755E-12
           etotal1    -3.5863426155E+02
           etotal2    -3.5863427460E+02
            fcart1     0.0000000000E+00 -2.3890163940E-04  4.4116299336E-24
                       0.0000000000E+00 -2.3791662672E-04  4.4116299336E-24
                       0.0000000000E+00 -2.3784558291E-04  4.4116299336E-24
                       0.0000000000E+00 -2.3891240207E-04  4.4116299336E-24
                       2.6856558435E-05  1.1918874671E-04 -4.2671084185E-07
                      -2.6764219402E-05  1.1918961729E-04 -7.3898367713E-07
                       2.6820080529E-05  1.1922185473E-04 -5.1979995564E-07
                      -2.6773228718E-05  1.1918790683E-04 -6.2960603457E-07
                       2.6773228718E-05  1.1918790683E-04  6.2960603457E-07
                      -2.6820080529E-05  1.1922185473E-04  5.1979995564E-07
                       2.6764219402E-05  1.1918961729E-04  7.3898367713E-07
                      -2.6856558435E-05  1.1918874671E-04  4.2671084185E-07
            fcart2     3.4465858856E-26  2.3543458883E-09  0.0000000000E+00
                       3.4465858856E-26 -9.0694655984E-09  0.0000000000E+00
                       3.4465858856E-26 -5.7327674500E-09  0.0000000000E+00
                       3.4465858856E-26 -5.9400092213E-10  0.0000000000E+00
                      -3.6718637904E-09  3.4033303653E-09  7.5902682351E-09
                      -7.7752837804E-09  7.9179012183E-09 -8.4412111211E-09
                       7.5046375371E-09  1.2166010248E-09  5.1237699704E-09
                       5.1991992193E-09 -6.0168885673E-09 -6.6617215353E-09
                      -5.1991992193E-09 -6.0168885673E-09  6.6617215353E-09
                      -7.5046375371E-09  1.2166010248E-09 -5.1237699704E-09
                       7.7752837804E-09  7.9179012183E-09  8.4412111211E-09
                       3.6718637904E-09  3.4033303653E-09 -7.5902682351E-09
-          fftalg         512
           getwfk1          0
           getwfk2          1
           istwfk        1    0    0    1    0    0    0    0    0    0
                         0    0    0    0    0    0    1    0    0    1
                         0    0    0    0    0    0    0    0    0    0
                         0    0    0    0    0    0    0    0    0    0
                         0    0    0    0    0    0    0    0    0    0
                       outvar_i_n : Printing only first  50 k-points.
              ixc          11
           jdtset        1    2
              kpt      0.00000000E+00  0.00000000E+00  0.00000000E+00
                       1.66666667E-01  0.00000000E+00  0.00000000E+00
                       3.33333333E-01  0.00000000E+00  0.00000000E+00
                       5.00000000E-01  0.00000000E+00  0.00000000E+00
                       0.00000000E+00  1.66666667E-01  0.00000000E+00
                       1.66666667E-01  1.66666667E-01  0.00000000E+00
                       3.33333333E-01  1.66666667E-01  0.00000000E+00
                       5.00000000E-01  1.66666667E-01  0.00000000E+00
                      -3.33333333E-01  1.66666667E-01  0.00000000E+00
                      -1.66666667E-01  1.66666667E-01  0.00000000E+00
                       0.00000000E+00  3.33333333E-01  0.00000000E+00
                       1.66666667E-01  3.33333333E-01  0.00000000E+00
                       3.33333333E-01  3.33333333E-01  0.00000000E+00
                       5.00000000E-01  3.33333333E-01  0.00000000E+00
                      -3.33333333E-01  3.33333333E-01  0.00000000E+00
                      -1.66666667E-01  3.33333333E-01  0.00000000E+00
                       0.00000000E+00  5.00000000E-01  0.00000000E+00
                       1.66666667E-01  5.00000000E-01  0.00000000E+00
                       3.33333333E-01  5.00000000E-01  0.00000000E+00
                       5.00000000E-01  5.00000000E-01  0.00000000E+00
                       0.00000000E+00  0.00000000E+00  1.66666667E-01
                       1.66666667E-01  0.00000000E+00  1.66666667E-01
                       3.33333333E-01  0.00000000E+00  1.66666667E-01
                       5.00000000E-01  0.00000000E+00  1.66666667E-01
                      -3.33333333E-01  0.00000000E+00  1.66666667E-01
                      -1.66666667E-01  0.00000000E+00  1.66666667E-01
                       0.00000000E+00  1.66666667E-01  1.66666667E-01
                       1.66666667E-01  1.66666667E-01  1.66666667E-01
                       3.33333333E-01  1.66666667E-01  1.66666667E-01
                       5.00000000E-01  1.66666667E-01  1.66666667E-01
                      -3.33333333E-01  1.66666667E-01  1.66666667E-01
                      -1.66666667E-01  1.66666667E-01  1.66666667E-01
                       0.00000000E+00  3.33333333E-01  1.66666667E-01
                       1.66666667E-01  3.33333333E-01  1.66666667E-01
                       3.33333333E-01  3.33333333E-01  1.66666667E-01
                       5.00000000E-01  3.33333333E-01  1.66666667E-01
                      -3.33333333E-01  3.33333333E-01  1.66666667E-01
                      -1.66666667E-01  3.33333333E-01  1.66666667E-01
                       0.00000000E+00  5.00000000E-01  1.66666667E-01
                       1.66666667E-01  5.00000000E-01  1.66666667E-01
                       3.33333333E-01  5.00000000E-01  1.66666667E-01
                       5.00000000E-01  5.00000000E-01  1.66666667E-01
                      -3.33333333E-01  5.00000000E-01  1.66666667E-01
                      -1.66666667E-01  5.00000000E-01  1.66666667E-01
                       0.00000000E+00 -3.33333333E-01  1.66666667E-01
                       1.66666667E-01 -3.33333333E-01  1.66666667E-01
                       3.33333333E-01 -3.33333333E-01  1.66666667E-01
                       5.00000000E-01 -3.33333333E-01  1.66666667E-01
                      -3.33333333E-01 -3.33333333E-01  1.66666667E-01
                      -1.66666667E-01 -3.33333333E-01  1.66666667E-01
                       outvar_i_n : Printing only first  50 k-points.
           kptopt           2
         kptrlatt        6    0    0      0    6    0      0    0    6
          kptrlen      5.75486009E+01
P           mkmem           4
            natom          12
            nband          48
           ndtset           2
            ngfft          45      45      45
             nkpt         112
            nstep         100
             nsym           2
           ntypat           2
              occ      2.000000  2.000000  2.000000  2.000000  2.000000  2.000000
                       2.000000  2.000000  2.000000  2.000000  2.000000  2.000000
                       2.000000  2.000000  2.000000  2.000000  2.000000  2.000000
                       2.000000  2.000000  2.000000  2.000000  2.000000  2.000000
                       2.000000  2.000000  2.000000  2.000000  2.000000  2.000000
                       2.000000  2.000000  2.000000  2.000000  2.000000  2.000000
                       2.000000  2.000000  2.000000  2.000000  2.000000  2.000000
                       2.000000  2.000000  2.000000  2.000000  2.000000  2.000000
        pawecutdg      2.50000000E+01 Hartree
         pawxcdev           0
            rfdir1          1       1       1
            rfdir2          0       0       0
          spgroup           3
           strten1    -1.7252481805E-04 -1.7260805682E-04 -4.7545444091E-04
                       0.0000000000E+00 -9.8176088757E-10  0.0000000000E+00
           strten2    -1.7251688282E-04 -1.7262938690E-04 -4.7544889095E-04
                       0.0000000000E+00 -9.2096511070E-10  0.0000000000E+00
        symmorphi           0
           symrel      1  0  0   0  1  0   0  0  1      -1  0  0   0  1  0   0  0 -1
           toldfe      1.00000000E-10 Hartree
           tolmxf      1.00000000E-05
           tsmear      4.00000000E-02 Hartree
            typat      1  1  1  1  2  2  2  2  2  2  2  2
              wtk        0.00463    0.00926    0.00926    0.00463    0.00926    0.00926
                         0.00926    0.00926    0.00926    0.00926    0.00926    0.00926
                         0.00926    0.00926    0.00926    0.00926    0.00463    0.00926
                         0.00926    0.00463    0.00926    0.00926    0.00926    0.00926
                         0.00926    0.00926    0.00926    0.00926    0.00926    0.00926
                         0.00926    0.00926    0.00926    0.00926    0.00926    0.00926
                         0.00926    0.00926    0.00926    0.00926    0.00926    0.00926
                         0.00926    0.00926    0.00926    0.00926    0.00926    0.00926
                         0.00926    0.00926
                       outvars : Printing only first  50 k-points.
           xangst      0.0000000000E+00  8.3736720864E-03  0.0000000000E+00
                       2.5377840000E+00  2.5461554388E+00  0.0000000000E+00
                       0.0000000000E+00  2.5461689906E+00  2.5377840000E+00
                       2.5377840000E+00  8.3760068477E-03  2.5377840000E+00
                       1.2753305103E+00  1.2688525121E+00  1.0233146520E+00
                       1.2623916693E+00  1.2686420790E+00  3.5611034738E+00
                       3.8129640197E+00  3.8064837375E+00  1.0233264273E+00
                       3.8004564497E+00  3.8067100063E+00  3.5611181422E+00
                       1.2751115503E+00  3.8067100063E+00  1.5144498578E+00
                       1.2626039803E+00  3.8064837375E+00  4.0522415727E+00
                       3.8131763307E+00  1.2686420790E+00  1.5144645262E+00
                       3.8002374897E+00  1.2688525121E+00  4.0522533480E+00
            xcart      0.0000000000E+00  1.5823946970E-02  0.0000000000E+00
                       4.7957167444E+00  4.8115364712E+00  0.0000000000E+00
                       0.0000000000E+00  4.8115620803E+00  4.7957167444E+00
                       4.7957167444E+00  1.5828359029E-02  4.7957167444E+00
                       2.4100253933E+00  2.3977837509E+00  1.9337844401E+00
                       2.3855745274E+00  2.3973860900E+00  6.7295102964E+00
                       7.2054577517E+00  7.1932117931E+00  1.9338066922E+00
                       7.1818218699E+00  7.1936393792E+00  6.7295380156E+00
                       2.4096116189E+00  7.1936393792E+00  2.8618954732E+00
                       2.3859757371E+00  7.1932117931E+00  7.6576267966E+00
                       7.2058589614E+00  2.3973860900E+00  2.8619231925E+00
                       7.1814080955E+00  2.3977837509E+00  7.6576490488E+00
             xred      0.0000000000E+00  1.6498000000E-03  0.0000000000E+00
                       5.0000000000E-01  5.0164936000E-01  0.0000000000E+00
                       0.0000000000E+00  5.0165203000E-01  5.0000000000E-01
                       5.0000000000E-01  1.6502600000E-03  5.0000000000E-01
                       2.5126853000E-01  2.4999222000E-01  2.0161579000E-01
                       2.4871929000E-01  2.4995076000E-01  7.0161674000E-01
                       7.5123888000E-01  7.4996212000E-01  2.0161811000E-01
                       7.4877461000E-01  7.5000670000E-01  7.0161963000E-01
                       2.5122539000E-01  7.5000670000E-01  2.9838037000E-01
                       2.4876112000E-01  7.4996212000E-01  7.9838189000E-01
                       7.5128071000E-01  2.4995076000E-01  2.9838326000E-01
                       7.4873147000E-01  2.4999222000E-01  7.9838421000E-01
            znucl       72.00000    8.00000
 
================================================================================


- Timing analysis has been suppressed with timopt=0



================================================================================

 Suggested references for the acknowledgment of ABINIT usage.

 The users of ABINIT have little formal obligations with respect to the ABINIT group
 (those specified in the GNU General Public License, http://www.gnu.org/copyleft/gpl.txt).
 However, it is common practice in the scientific literature,
 to acknowledge the efforts of people that have made the research possible.
 In this spirit, please find below suggested citations of work written by ABINIT developers,
 corresponding to implementations inside of ABINIT that you have used in the present run.
 Note also that it will be of great value to readers of publications presenting these results,
 to read papers enabling them to understand the theoretical formalism and details
 of the ABINIT implementation.
 For information on why they are suggested, see also https://docs.abinit.org/theory/acknowledgments.
-
- [1] The Abinit project: Impact, environment and recent developments.
- Computer Phys. Comm. 248, 107042 (2020).
- X.Gonze, B. Amadon, G. Antonius, F.Arnardi, L.Baguet, J.-M.Beuken,
- J.Bieder, F.Bottin, J.Bouchet, E.Bousquet, N.Brouwer, F.Bruneval,
- G.Brunin, T.Cavignac, J.-B. Charraud, Wei Chen, M.Cote, S.Cottenier,
- J.Denier, G.Geneste, Ph.Ghosez, M.Giantomassi, Y.Gillet, O.Gingras,
- D.R.Hamann, G.Hautier, Xu He, N.Helbig, N.Holzwarth, Y.Jia, F.Jollet,
- W.Lafargue-Dit-Hauret, K.Lejaeghere, M.A.L.Marques, A.Martin, C.Martins,
- H.P.C. Miranda, F.Naccarato, K. Persson, G.Petretto, V.Planes, Y.Pouillon,
- S.Prokhorenko, F.Ricci, G.-M.Rignanese, A.H.Romero, M.M.Schmitt, M.Torrent,
- M.J.van Setten, B.Van Troeye, M.J.Verstraete, G.Zerah and J.W.Zwanzig
- Comment: the fifth generic paper describing the ABINIT project.
- Note that a version of this paper, that is not formatted for Computer Phys. Comm. 
- is available at https://www.abinit.org/sites/default/files/ABINIT20.pdf .
- The licence allows the authors to put it on the Web.
- DOI and bibtex: see https://docs.abinit.org/theory/bibliography/#gonze2020
-
- [2] Optimized norm-conserving Vanderbilt pseudopotentials.
- D.R. Hamann, Phys. Rev. B 88, 085117 (2013).
- Comment: Some pseudopotential generated using the ONCVPSP code were used.
- DOI and bibtex: see https://docs.abinit.org/theory/bibliography/#hamann2013
-
- [3] ABINIT: Overview, and focus on selected capabilities
- J. Chem. Phys. 152, 124102 (2020).
- A. Romero, D.C. Allan, B. Amadon, G. Antonius, T. Applencourt, L.Baguet,
- J.Bieder, F.Bottin, J.Bouchet, E.Bousquet, F.Bruneval,
- G.Brunin, D.Caliste, M.Cote,
- J.Denier, C. Dreyer, Ph.Ghosez, M.Giantomassi, Y.Gillet, O.Gingras,
- D.R.Hamann, G.Hautier, F.Jollet, G. Jomard,
- A.Martin, 
- H.P.C. Miranda, F.Naccarato, G.Petretto, N.A. Pike, V.Planes,
- S.Prokhorenko, T. Rangel, F.Ricci, G.-M.Rignanese, M.Royo, M.Stengel, M.Torrent,
- M.J.van Setten, B.Van Troeye, M.J.Verstraete, J.Wiktor, J.W.Zwanziger, and X.Gonze.
- Comment: a global overview of ABINIT, with focus on selected capabilities .
- Note that a version of this paper, that is not formatted for J. Chem. Phys 
- is available at https://www.abinit.org/sites/default/files/ABINIT20_JPC.pdf .
- The licence allows the authors to put it on the Web.
- DOI and bibtex: see https://docs.abinit.org/theory/bibliography/#romero2020
-
- [4] Recent developments in the ABINIT software package.
- Computer Phys. Comm. 205, 106 (2016).
- X.Gonze, F.Jollet, F.Abreu Araujo, D.Adams, B.Amadon, T.Applencourt,
- C.Audouze, J.-M.Beuken, J.Bieder, A.Bokhanchuk, E.Bousquet, F.Bruneval
- D.Caliste, M.Cote, F.Dahm, F.Da Pieve, M.Delaveau, M.Di Gennaro,
- B.Dorado, C.Espejo, G.Geneste, L.Genovese, A.Gerossier, M.Giantomassi,
- Y.Gillet, D.R.Hamann, L.He, G.Jomard, J.Laflamme Janssen, S.Le Roux,
- A.Levitt, A.Lherbier, F.Liu, I.Lukacevic, A.Martin, C.Martins,
- M.J.T.Oliveira, S.Ponce, Y.Pouillon, T.Rangel, G.-M.Rignanese,
- A.H.Romero, B.Rousseau, O.Rubel, A.A.Shukri, M.Stankovski, M.Torrent,
- M.J.Van Setten, B.Van Troeye, M.J.Verstraete, D.Waroquier, J.Wiktor,
- B.Xu, A.Zhou, J.W.Zwanziger.
- Comment: the fourth generic paper describing the ABINIT project.
- Note that a version of this paper, that is not formatted for Computer Phys. Comm. 
- is available at https://www.abinit.org/sites/default/files/ABINIT16.pdf .
- The licence allows the authors to put it on the Web.
- DOI and bibtex: see https://docs.abinit.org/theory/bibliography/#gonze2016
-
- And optionally:
-
- [5] ABINIT: First-principles approach of materials and nanosystem properties.
- Computer Phys. Comm. 180, 2582-2615 (2009).
- X. Gonze, B. Amadon, P.-M. Anglade, J.-M. Beuken, F. Bottin, P. Boulanger, F. Bruneval,
- D. Caliste, R. Caracas, M. Cote, T. Deutsch, L. Genovese, Ph. Ghosez, M. Giantomassi
- S. Goedecker, D.R. Hamann, P. Hermet, F. Jollet, G. Jomard, S. Leroux, M. Mancini, S. Mazevet,
- M.J.T. Oliveira, G. Onida, Y. Pouillon, T. Rangel, G.-M. Rignanese, D. Sangalli, R. Shaltaf,
- M. Torrent, M.J. Verstraete, G. Zerah, J.W. Zwanziger
- Comment: the third generic paper describing the ABINIT project.
- Note that a version of this paper, that is not formatted for Computer Phys. Comm. 
- is available at https://www.abinit.org/sites/default/files/ABINIT_CPC_v10.pdf .
- The licence allows the authors to put it on the Web.
- DOI and bibtex: see https://docs.abinit.org/theory/bibliography/#gonze2009
-
- Proc.   0 individual time (sec): cpu=        513.6  wall=        514.0
 
================================================================================
 
 Calculation completed.
.Delivered   0 WARNINGs and   2 COMMENTs to log file.
+Overall time at end (sec) : cpu=      16448.1  wall=      16446.5
