
.Version 9.4.2 of ABINIT 
.(MPI version, prepared for a x86_64_linux_intel19.0 computer) 

.Copyright (C) 1998-2021 ABINIT group . 
 ABINIT comes with ABSOLUTELY NO WARRANTY.
 It is free software, and you are welcome to redistribute it
 under certain conditions (GNU General Public License,
 see ~abinit/COPYING or http://www.gnu.org/copyleft/gpl.txt).

 ABINIT is a project of the Universite Catholique de Louvain,
 Corning Inc. and other collaborators, see ~abinit/doc/developers/contributors.txt .
 Please read https://docs.abinit.org/theory/acknowledgments for suggested
 acknowledgments of the ABINIT effort.
 For more information, see https://www.abinit.org .

.Starting date : Sun 20 Jun 2021.
- ( at 05h50 )
  
- input  file    -> /p/work1/jiahaoz/HfO4/CUBIC_ITERATE/itertwo/P-0.05/scf0
- output file    -> /p/work1/jiahaoz/HfO4/CUBIC_ITERATE/itertwo/P-0.05/scf0.abo
- root for input  files -> i
- root for output files -> o
 
 
 DATASET    1 : space group P1 (#  1); Bravais aP (primitive triclinic)
================================================================================
 Values of the parameters that define the memory need for DATASET  1.
     intxc =       0    ionmov =       0      iscf =       7    lmnmax =       8
     lnmax =       8     mgfft =      45  mpssoang =       4    mqgrid =    3001
     natom =      12  nloc_mem =       1    nspden =       1   nspinor =       1
    nsppol =       1      nsym =       1    n1xccc =    2501    ntypat =       2
    occopt =       1   xclevel =       2
-    mband =          48        mffmem =           1         mkmem =           4
       mpw =        5294          nfft =       91125          nkpt =         112
================================================================================
P This job should need less than                      44.867 Mbytes of memory.
  Rough estimation (10% accuracy) of disk space for files :
_ WF disk file :    434.275 Mbytes ; DEN or POT disk file :      0.697 Mbytes.
================================================================================
 
 
 DATASET    2 : space group P1 (#  1); Bravais aP (primitive triclinic)
================================================================================
 Values of the parameters that define the memory need for DATASET  2.
     intxc =       0    ionmov =       0      iscf =       7    lmnmax =       8
     lnmax =       8     mgfft =      45  mpssoang =       4    mqgrid =    3001
     natom =      12  nloc_mem =       1    nspden =       1   nspinor =       1
    nsppol =       1      nsym =       1    n1xccc =    2501    ntypat =       2
    occopt =       1   xclevel =       2
-    mband =          48        mffmem =           1         mkmem =           4
       mpw =        5294          nfft =       91125          nkpt =         112
================================================================================
P This job should need less than                      44.867 Mbytes of memory.
  Rough estimation (10% accuracy) of disk space for files :
_ WF disk file :    434.275 Mbytes ; DEN or POT disk file :      0.697 Mbytes.
================================================================================
 
--------------------------------------------------------------------------------
------------- Echo of variables that govern the present computation ------------
--------------------------------------------------------------------------------
-
- outvars: echo of selected default values                                      
-   iomode0 =  0 , fftalg0 =512 , wfoptalg0 =  0
-
- outvars: echo of global parameters not present in the input file              
-  max_nthreads =    0
-
 -outvars: echo values of preprocessed input variables --------
            acell      9.5914334888E+00  9.5914334888E+00  9.5914334888E+00 Bohr
              amu      1.78490000E+02  1.59994000E+01
         berryopt1         -1
         berryopt2          4
          chkprim           0
             ecut      2.50000000E+01 Hartree
           ecutsm      5.00000000E-01 Hartree
-          fftalg         512
           getwfk1          0
           getwfk2          1
           istwfk        1    0    0    1    0    0    0    0    0    0
                         0    0    0    0    0    0    1    0    0    1
                         0    0    0    0    0    0    0    0    0    0
                         0    0    0    0    0    0    0    0    0    0
                         0    0    0    0    0    0    0    0    0    0
                       outvar_i_n : Printing only first  50 k-points.
              ixc          11
           jdtset        1    2
              kpt      0.00000000E+00  0.00000000E+00  0.00000000E+00
                       1.66666667E-01  0.00000000E+00  0.00000000E+00
                       3.33333333E-01  0.00000000E+00  0.00000000E+00
                       5.00000000E-01  0.00000000E+00  0.00000000E+00
                       0.00000000E+00  1.66666667E-01  0.00000000E+00
                       1.66666667E-01  1.66666667E-01  0.00000000E+00
                       3.33333333E-01  1.66666667E-01  0.00000000E+00
                       5.00000000E-01  1.66666667E-01  0.00000000E+00
                      -3.33333333E-01  1.66666667E-01  0.00000000E+00
                      -1.66666667E-01  1.66666667E-01  0.00000000E+00
                       0.00000000E+00  3.33333333E-01  0.00000000E+00
                       1.66666667E-01  3.33333333E-01  0.00000000E+00
                       3.33333333E-01  3.33333333E-01  0.00000000E+00
                       5.00000000E-01  3.33333333E-01  0.00000000E+00
                      -3.33333333E-01  3.33333333E-01  0.00000000E+00
                      -1.66666667E-01  3.33333333E-01  0.00000000E+00
                       0.00000000E+00  5.00000000E-01  0.00000000E+00
                       1.66666667E-01  5.00000000E-01  0.00000000E+00
                       3.33333333E-01  5.00000000E-01  0.00000000E+00
                       5.00000000E-01  5.00000000E-01  0.00000000E+00
                       0.00000000E+00  0.00000000E+00  1.66666667E-01
                       1.66666667E-01  0.00000000E+00  1.66666667E-01
                       3.33333333E-01  0.00000000E+00  1.66666667E-01
                       5.00000000E-01  0.00000000E+00  1.66666667E-01
                      -3.33333333E-01  0.00000000E+00  1.66666667E-01
                      -1.66666667E-01  0.00000000E+00  1.66666667E-01
                       0.00000000E+00  1.66666667E-01  1.66666667E-01
                       1.66666667E-01  1.66666667E-01  1.66666667E-01
                       3.33333333E-01  1.66666667E-01  1.66666667E-01
                       5.00000000E-01  1.66666667E-01  1.66666667E-01
                      -3.33333333E-01  1.66666667E-01  1.66666667E-01
                      -1.66666667E-01  1.66666667E-01  1.66666667E-01
                       0.00000000E+00  3.33333333E-01  1.66666667E-01
                       1.66666667E-01  3.33333333E-01  1.66666667E-01
                       3.33333333E-01  3.33333333E-01  1.66666667E-01
                       5.00000000E-01  3.33333333E-01  1.66666667E-01
                      -3.33333333E-01  3.33333333E-01  1.66666667E-01
                      -1.66666667E-01  3.33333333E-01  1.66666667E-01
                       0.00000000E+00  5.00000000E-01  1.66666667E-01
                       1.66666667E-01  5.00000000E-01  1.66666667E-01
                       3.33333333E-01  5.00000000E-01  1.66666667E-01
                       5.00000000E-01  5.00000000E-01  1.66666667E-01
                      -3.33333333E-01  5.00000000E-01  1.66666667E-01
                      -1.66666667E-01  5.00000000E-01  1.66666667E-01
                       0.00000000E+00 -3.33333333E-01  1.66666667E-01
                       1.66666667E-01 -3.33333333E-01  1.66666667E-01
                       3.33333333E-01 -3.33333333E-01  1.66666667E-01
                       5.00000000E-01 -3.33333333E-01  1.66666667E-01
                      -3.33333333E-01 -3.33333333E-01  1.66666667E-01
                      -1.66666667E-01 -3.33333333E-01  1.66666667E-01
                       outvar_i_n : Printing only first  50 k-points.
           kptopt           2
         kptrlatt        6    0    0      0    6    0      0    0    6
          kptrlen      5.75486009E+01
P           mkmem           4
            natom          12
            nband          48
           ndtset           2
            ngfft          45      45      45
             nkpt         112
            nstep         100
             nsym           1
           ntypat           2
              occ      2.000000  2.000000  2.000000  2.000000  2.000000  2.000000
                       2.000000  2.000000  2.000000  2.000000  2.000000  2.000000
                       2.000000  2.000000  2.000000  2.000000  2.000000  2.000000
                       2.000000  2.000000  2.000000  2.000000  2.000000  2.000000
                       2.000000  2.000000  2.000000  2.000000  2.000000  2.000000
                       2.000000  2.000000  2.000000  2.000000  2.000000  2.000000
                       2.000000  2.000000  2.000000  2.000000  2.000000  2.000000
                       2.000000  2.000000  2.000000  2.000000  2.000000  2.000000
        pawecutdg      2.50000000E+01 Hartree
         pawxcdev           0
            rfdir1          1       1       1
            rfdir2          0       0       0
          spgroup           1
        symmorphi           0
           toldfe      1.00000000E-10 Hartree
           tolmxf      1.00000000E-05
           tsmear      4.00000000E-02 Hartree
            typat      1  1  1  1  2  2  2  2  2  2  2  2
              wtk        0.00463    0.00926    0.00926    0.00463    0.00926    0.00926
                         0.00926    0.00926    0.00926    0.00926    0.00926    0.00926
                         0.00926    0.00926    0.00926    0.00926    0.00463    0.00926
                         0.00926    0.00463    0.00926    0.00926    0.00926    0.00926
                         0.00926    0.00926    0.00926    0.00926    0.00926    0.00926
                         0.00926    0.00926    0.00926    0.00926    0.00926    0.00926
                         0.00926    0.00926    0.00926    0.00926    0.00926    0.00926
                         0.00926    0.00926    0.00926    0.00926    0.00926    0.00926
                         0.00926    0.00926
                       outvars : Printing only first  50 k-points.
           xangst      6.4949961734E-03  2.1317610256E-02 -7.9664407841E-03
                       2.3780477122E+00  2.5592246356E+00 -3.1839020019E-01
                       6.3144000967E-03  2.5592309972E+00  2.2191955923E+00
                       2.3779507503E+00  2.1381498684E-02  2.5299725800E+00
                       1.3992738606E+00  1.2752252551E+00  1.0380785777E+00
                       9.8550694997E-01  1.2754717057E+00  3.5757933294E+00
                       4.0990719159E+00  3.2597651975E+00  4.9912572967E-01
                       3.3615228256E+00  3.2599352084E+00  3.0375205001E+00
                       1.3993468121E+00  3.8127689644E+00  1.1734918986E+00
                       9.8573891556E-01  3.8129415928E+00  3.7111812330E+00
                       4.0995858807E+00  7.2043047539E-01  1.7125297190E+00
                       3.3602930627E+00  7.2017828051E-01  4.2509441086E+00
            xcart      1.2273764002E-02  4.0284445192E-02 -1.5054391336E-02
                       4.4938589069E+00  4.8362336739E+00 -6.0167028175E-01
                       1.1932486876E-02  4.8362456955E+00  4.1936719048E+00
                       4.4936756756E+00  4.0405176824E-02  4.7809552999E+00
                       2.6442443814E+00  2.4098264899E+00  1.9616842163E+00
                       1.8623382375E+00  2.4102922141E+00  6.7572701005E+00
                       7.7461233200E+00  6.1600634808E+00  9.4321093495E-01
                       6.3523575298E+00  6.1603847547E+00  5.7400818683E+00
                       2.6443822398E+00  7.2050891508E+00  2.2175783075E+00
                       1.8627765889E+00  7.2054153710E+00  7.0131161599E+00
                       7.7470945728E+00  1.3614162963E+00  3.2362121633E+00
                       6.3500336148E+00  1.3609397170E+00  8.0331201714E+00
             xred      1.2796589807E-03  4.2000442623E-03 -1.5695663587E-03
                       4.6852839173E-01  5.0422428300E-01 -6.2729964447E-02
                       1.2440775292E-03  5.0422553637E-01  4.3723098426E-01
                       4.6850928809E-01  4.2126317063E-03  4.9846097619E-01
                       2.7568813196E-01  2.5124779239E-01  2.0452461236E-01
                       1.9416683019E-01  2.5129634865E-01  7.0451096891E-01
                       8.0760851118E-01  6.4224638454E-01  9.8338891267E-02
                       6.6229490484E-01  6.4227988047E-01  5.9845922666E-01
                       2.7570250504E-01  7.5120044977E-01  2.3120405413E-01
                       1.9421253258E-01  7.5123446140E-01  7.3118540290E-01
                       8.0770977371E-01  1.4194085773E-01  3.3740651667E-01
                       6.6205261416E-01  1.4189116972E-01  8.3753071746E-01
            znucl       72.00000    8.00000
 
================================================================================
 
 chkinp: Checking input parameters for consistency, jdtset=   1.
 
 chkinp: Checking input parameters for consistency, jdtset=   2.
 
================================================================================
== DATASET  1 ==================================================================
-   mpi_nproc: 28, omp_nthreads: -1 (-1 if OMP is not activated)
 

--- !DatasetInfo
iteration_state: {dtset: 1, }
dimensions: {natom: 12, nkpt: 112, mband: 48, nsppol: 1, nspinor: 1, nspden: 1, mpw: 5294, }
cutoff_energies: {ecut:  25.0, pawecutdg:  25.0, }
electrons: {nelect:   9.60000000E+01, charge:   0.00000000E+00, occopt:   1.00000000E+00, tsmear:   4.00000000E-02, }
meta: {optdriver: 0, ionmov: 0, optcell: 0, iscf: 7, paral_kgb: 0, }
...

 Exchange-correlation functional for the present dataset will be:
  GGA: Perdew-Burke-Ernzerhof functional - ixc=11
 Citation for XC functional:
  J.P.Perdew, K.Burke, M.Ernzerhof, PRL 77, 3865 (1996)
 
 Real(R)+Recip(G) space primitive vectors, cartesian coordinates (Bohr,Bohr^-1):
 R(1)=  9.5914335  0.0000000  0.0000000  G(1)=  0.1042597  0.0000000  0.0000000
 R(2)=  0.0000000  9.5914335  0.0000000  G(2)=  0.0000000  0.1042597  0.0000000
 R(3)=  0.0000000  0.0000000  9.5914335  G(3)=  0.0000000  0.0000000  0.1042597
 Unit cell volume ucvol=  8.8236964E+02 bohr^3
 Angles (23,13,12)=  9.00000000E+01  9.00000000E+01  9.00000000E+01 degrees
 
 getcut: wavevector=  0.0000  0.0000  0.0000  ngfft=  45  45  45
         ecut(hartree)=     25.000   => boxcut(ratio)=   2.03814
 
--- Pseudopotential description ------------------------------------------------
- pspini: atom type   1  psp file is /p/work1/jiahaoz/HfO4/pbe_s_sr/Hf.psp8
- pspatm: opening atomic psp file    /p/work1/jiahaoz/HfO4/pbe_s_sr/Hf.psp8
- Hf    ONCVPSP  r_core=  1.72  1.72  1.72  2.43
- 72.00000  12.00000    160625                znucl, zion, pspdat
    8   11    3    4       600   0.00000      pspcod,pspxc,lmax,lloc,mmax,r2well
    5.99000000000000    5.40000000000000    0.00000000000000   rchrg,fchrg,qchrg
     nproj     2     2     2     2
     extension_switch     1
  pspatm : epsatm=   21.98649506
         --- l  ekb(1:nproj) -->
             0    5.812335   -0.521211
             1   -3.038329    2.466565
             2    2.060039    0.471534
             3    9.947446    0.353012
 pspatm: atomic psp has been read  and splines computed
 
- pspini: atom type   2  psp file is /p/work1/jiahaoz/HfO4/pbe_s_sr/O.psp8
- pspatm: opening atomic psp file    /p/work1/jiahaoz/HfO4/pbe_s_sr/O.psp8
- O     ONCVPSP  r_core=  1.36  1.46  1.26
-  8.00000   6.00000    151103                znucl, zion, pspdat
    8   11    2    4       600   0.00000      pspcod,pspxc,lmax,lloc,mmax,r2well
    5.99000000000000    4.00000000000000    0.00000000000000   rchrg,fchrg,qchrg
     nproj     2     2     1
     extension_switch     1
  pspatm : epsatm=    6.19401560
         --- l  ekb(1:nproj) -->
             0    5.257212    0.704241
             1   -5.135443   -1.451781
             2   -4.371486
 pspatm: atomic psp has been read  and splines computed
 
   1.31998181E+04                                ecore*ucvol(ha*bohr**3)
--------------------------------------------------------------------------------
 
_setup2: Arith. and geom. avg. npw (full set) are    5268.875    5268.869
  initberry: for direction 1, nkstr =   6, nstr =     36
  initberry: for direction 2, nkstr =   6, nstr =     36
  initberry: for direction 3, nkstr =   6, nstr =     36
 
================================================================================

--- !BeginCycle
iteration_state: {dtset: 1, }
solver: {iscf: 7, nstep: 100, nline: 4, wfoptalg: 0, }
tolerances: {toldfe: 1.00E-10, }
...
 
     iter   Etot(hartree)      deltaE(h)  residm     vres2
 ETOT  1  -357.50081779602    -3.575E+02 2.922E-01 1.067E+03
 ETOT  2  -357.94586739623    -4.450E-01 2.576E-02 9.577E+02
 ETOT  3  -358.60807894946    -6.622E-01 2.043E-03 5.660E+01
 ETOT  4  -358.64013307191    -3.205E-02 9.635E-05 1.420E-01
 ETOT  5  -358.64014457594    -1.150E-05 3.648E-06 2.652E-01
 ETOT  6  -358.64023994297    -9.537E-05 1.626E-06 5.386E-03
 ETOT  7  -358.64024243636    -2.493E-06 2.376E-08 5.965E-04
 ETOT  8  -358.64024264494    -2.086E-07 3.768E-09 2.212E-04
 ETOT  9  -358.64024274561    -1.007E-07 1.179E-09 4.965E-06
 ETOT 10  -358.64024274744    -1.823E-09 2.979E-11 2.553E-07
 ETOT 11  -358.64024274747    -2.859E-11 5.141E-12 1.515E-07
 ETOT 12  -358.64024274752    -5.787E-11 1.423E-12 1.098E-08
 
 At SCF step   12, etot is converged : 
  for the second time, diff in etot=  5.787E-11 < toldfe=  1.000E-10
 
 Computing the polarization (Berry phase) for reciprocal vector:
  0.16667  0.00000  0.00000 (in reduced coordinates)
  0.01738  0.00000  0.00000 (in cartesian coordinates - atomic units)
 Number of strings:    36
 Number of k points in string:    6
 
 Summary of the results
 Electronic Berry phase    -5.521993677E-01
            Ionic phase     5.513518179E-01
            Total phase    -8.475497544E-04
    Remapping in [-1,1]    -8.475497544E-04
 
           Polarization    -9.212938312E-06 (a.u. of charge)/bohr^2
           Polarization    -5.271160681E-04 C/m^2
 
 
 Computing the polarization (Berry phase) for reciprocal vector:
  0.00000  0.16667  0.00000 (in reduced coordinates)
  0.00000  0.01738  0.00000 (in cartesian coordinates - atomic units)
 Number of strings:    36
 Number of k points in string:    6
 
 Summary of the results
 Electronic Berry phase    -7.221644388E-01
            Ionic phase    -3.576259879E-01
            Total phase    -1.079790427E+00
    Remapping in [-1,1]     9.202095733E-01
 
           Polarization     1.000275676E-02 (a.u. of charge)/bohr^2
           Polarization     5.723053421E-01 C/m^2
 
 
 Computing the polarization (Berry phase) for reciprocal vector:
  0.00000  0.00000  0.16667 (in reduced coordinates)
  0.00000  0.00000  0.01738 (in cartesian coordinates - atomic units)
 Number of strings:    36
 Number of k points in string:    6
 
 Summary of the results
 Electronic Berry phase    -9.160353007E-01
            Ionic phase     9.156714979E-01
            Total phase    -3.638028689E-04
    Remapping in [-1,1]    -3.638028689E-04
 
           Polarization    -3.954568297E-06 (a.u. of charge)/bohr^2
           Polarization    -2.262596819E-04 C/m^2
 
 
 Polarization in cartesian coordinates (a.u.):
 (the sum of the electronic and ionic Berry phase has been folded into [-1, 1])
     Electronic berry phase:       -0.600245435E-02  -0.784998921E-02  -0.995738206E-02
     Ionic:                         0.599324141E-02  -0.388742507E-02   0.995342749E-02  
     Total:                        -0.921293831E-05   0.100027568E-01  -0.395456830E-05
 
 Polarization in cartesian coordinates (C/m^2):
 (the sum of the electronic and ionic Berry phase has been folded into [-1, 1])
     Electronic berry phase:       -0.343428994E+00  -0.449135260E+00  -0.569709239E+00
     Ionic:                         0.342901878E+00  -0.222418098E+00   0.569482980E+00  
     Total:                        -0.527116068E-03   0.572305342E+00  -0.226259682E-03
 
 Cartesian components of stress tensor (hartree/bohr^3)
  sigma(1 1)= -1.99004496E-04  sigma(3 2)= -3.62965799E-08
  sigma(2 2)= -2.22149906E-04  sigma(3 1)=  5.08443828E-09
  sigma(3 3)= -5.62368083E-04  sigma(2 1)=  1.05297108E-07
 

--- !ResultsGS
iteration_state: {dtset: 1, }
comment   : Summary of ground state results
lattice_vectors:
- [  9.5914335,   0.0000000,   0.0000000, ]
- [  0.0000000,   9.5914335,   0.0000000, ]
- [  0.0000000,   0.0000000,   9.5914335, ]
lattice_lengths: [   9.59143,    9.59143,    9.59143, ]
lattice_angles: [ 90.000,  90.000,  90.000, ] # degrees, (23, 13, 12)
lattice_volume:   8.8236964E+02
convergence: {deltae: -5.787E-11, res2:  1.098E-08, residm:  1.423E-12, diffor: null, }
etotal    :  -3.58640243E+02
entropy   :   0.00000000E+00
fermie    :   2.79241178E-01
cartesian_stress_tensor: # hartree/bohr^3
- [ -1.99004496E-04,   1.05297108E-07,   5.08443828E-09, ]
- [  1.05297108E-07,  -2.22149906E-04,  -3.62965799E-08, ]
- [  5.08443828E-09,  -3.62965799E-08,  -5.62368083E-04, ]
pressure_GPa:   9.6454E+00
xred      :
- [  1.2797E-03,   4.2000E-03,  -1.5696E-03, Hf]
- [  4.6853E-01,   5.0422E-01,  -6.2730E-02, Hf]
- [  1.2441E-03,   5.0423E-01,   4.3723E-01, Hf]
- [  4.6851E-01,   4.2126E-03,   4.9846E-01, Hf]
- [  2.7569E-01,   2.5125E-01,   2.0452E-01,  O]
- [  1.9417E-01,   2.5130E-01,   7.0451E-01,  O]
- [  8.0761E-01,   6.4225E-01,   9.8339E-02,  O]
- [  6.6229E-01,   6.4228E-01,   5.9846E-01,  O]
- [  2.7570E-01,   7.5120E-01,   2.3120E-01,  O]
- [  1.9421E-01,   7.5123E-01,   7.3119E-01,  O]
- [  8.0771E-01,   1.4194E-01,   3.3741E-01,  O]
- [  6.6205E-01,   1.4189E-01,   8.3753E-01,  O]
cartesian_forces: # hartree/bohr
- [  3.96622426E-07,   4.39600192E-07,   1.87595160E-07, ]
- [ -1.74085397E-06,  -9.97216669E-08,  -6.30117557E-06, ]
- [ -1.78754298E-06,   1.04558886E-07,   4.13344774E-06, ]
- [  7.87098302E-07,   5.77689216E-06,   2.92994282E-06, ]
- [ -1.26885874E-05,  -1.28166310E-05,  -1.27735293E-05, ]
- [  1.51623867E-05,  -1.61110003E-05,  -1.61579500E-05, ]
- [  2.09038582E-05,   1.44086134E-05,   6.71407334E-06, ]
- [ -1.71230769E-05,   1.48819523E-05,   2.80471737E-06, ]
- [ -1.50499124E-05,  -1.79103225E-05,   1.20429389E-05, ]
- [  1.28637671E-05,  -1.52276987E-05,   1.56140587E-05, ]
- [  1.62199128E-05,   1.45134413E-05,  -1.52572477E-06, ]
- [ -1.79436718E-05,   1.20403158E-05,  -7.66839446E-06, ]
force_length_stats: {min:   6.21087451E-07, max:   2.73960152E-05, mean:   1.77655383E-05, }
...

 Integrated electronic density in atomic spheres:
 ------------------------------------------------
 Atom  Sphere_radius  Integrated_density
    1        2.00000          8.33907047
    2        2.00000          8.33618199
    3        2.00000          8.33556377
    4        2.00000          8.32896046
    5        2.00000          6.38147088
    6        2.00000          6.38035920
    7        2.00000          6.35650365
    8        2.00000          6.36283448
    9        2.00000          6.38217644
   10        2.00000          6.38407452
   11        2.00000          6.35681035
   12        2.00000          6.35590100
================================================================================
 
 ----iterations are completed or convergence reached----
 
 Mean square residual over all n,k,spin=   32.086E-14; max=  14.231E-13
 reduced coordinates (array xred) for   12 atoms
       0.001279658981      0.004200044262     -0.001569566359
       0.468528391730      0.504224283000     -0.062729964447
       0.001244077529      0.504225536370      0.437230984260
       0.468509288090      0.004212631706      0.498460976190
       0.275688131960      0.251247792390      0.204524612360
       0.194166830190      0.251296348650      0.704510968910
       0.807608511180      0.642246384540      0.098338891267
       0.662294904840      0.642279880470      0.598459226660
       0.275702505040      0.751200449770      0.231204054130
       0.194212532580      0.751234461400      0.731185402900
       0.807709773710      0.141940857730      0.337406516670
       0.662052614160      0.141891169720      0.837530717460
 rms dE/dt=  2.0933E-04; max dE/dt=  1.7775E-04; dE/dt below (all hartree)
    1      -0.000310158845      0.000001752372      0.000005715398
    2      -0.000289657382      0.000006925242      0.000067952011
    3      -0.000289209568      0.000004965898     -0.000032130985
    4      -0.000313904068     -0.000049439909     -0.000020587648
    5      -0.000184652925      0.000128898631      0.000130031161
    6      -0.000451783690      0.000160496356      0.000162492607
    7      -0.000506852632     -0.000132230489     -0.000056882884
    8      -0.000142119814     -0.000136770487     -0.000019386556
    9      -0.000162004434      0.000177754435     -0.000107994343
   10      -0.000429736634      0.000152024227     -0.000142246502
   11      -0.000461926882     -0.000133235939      0.000022148592
   12      -0.000134249133     -0.000109515120      0.000081065600
 
 cartesian coordinates (angstrom) at end:
    1      0.00649499617335     0.02131761025631    -0.00796644078409
    2      2.37804771215625     2.55922463561774    -0.31839020018833
    3      0.00631440009673     2.55923099718241     2.21919559231856
    4      2.37795075033238     0.02138149868428     2.52997257999873
    5      1.39927386055595     1.27522525512533     1.03807857770682
    6      0.98550694997380     1.27547170572478     3.57579332944859
    7      4.09907191587285     3.25976519748692     0.49912572967026
    8      3.36152282556895     3.25993520835736     3.03752050014024
    9      1.39934681210086     3.81276896443822     1.17349189861250
   10      0.98573891556201     3.81294159277908     3.71118123302635
   11      4.09958588072972     0.72043047538694     1.71252971900172
   12      3.36029306274684     0.72017828051340     4.25094410855702
 
 cartesian forces (hartree/bohr) at end:
    1      0.00000039662243     0.00000043960019     0.00000018759516
    2     -0.00000174085397    -0.00000009972167    -0.00000630117557
    3     -0.00000178754298     0.00000010455889     0.00000413344774
    4      0.00000078709830     0.00000577689216     0.00000292994282
    5     -0.00001268858738    -0.00001281663096    -0.00001277352929
    6      0.00001516238666    -0.00001611100031    -0.00001615794999
    7      0.00002090385815     0.00001440861342     0.00000671407334
    8     -0.00001712307693     0.00001488195227     0.00000280471737
    9     -0.00001504991237    -0.00001791032246     0.00001204293890
   10      0.00001286376706    -0.00001522769867     0.00001561405875
   11      0.00001621991283     0.00001451344135    -0.00000152572477
   12     -0.00001794367179     0.00001204031577    -0.00000766839446
 frms,max,avg= 1.1657663E-05 2.0903858E-05   3.194E-05 -6.223E-07 -7.835E-07 h/b
 
 cartesian forces (eV/Angstrom) at end:
    1      0.00002039514344     0.00002260514884     0.00000964653017
    2     -0.00008951830292    -0.00000512789385    -0.00032401944853
    3     -0.00009191914801     0.00000537663365     0.00021255041069
    4      0.00004047421864     0.00029705971381     0.00015066370488
    5     -0.00065247334222    -0.00065905760695    -0.00065684123010
    6      0.00077968120481    -0.00082846087594    -0.00083087512527
    7      0.00107491951493     0.00074092062985     0.00034525150349
    8     -0.00088050394411     0.00076526069007     0.00014422435398
    9     -0.00077389754511    -0.00092098573316     0.00061927276527
   10      0.00066148144272    -0.00078303968308     0.00080290711554
   11      0.00083406138263     0.00074631109819    -0.00007845591539
   12     -0.00092270062481     0.00061913787858    -0.00039432466473
 frms,max,avg= 5.9946106E-04 1.0749195E-03   1.642E-03 -3.200E-05 -4.029E-05 e/A
 length scales=  9.591433488838  9.591433488838  9.591433488838 bohr
              =  5.075568000000  5.075568000000  5.075568000000 angstroms
 prteigrs : about to open file o_DS1_EIG
 Fermi (or HOMO) energy (hartree) =   0.27924   Average Vxc (hartree)=  -0.44623
 Eigenvalues (hartree) for nkpt= 112  k points:
 kpt#   1, nband= 48, wtk=  0.00463, kpt=  0.0000  0.0000  0.0000 (reduced coord)
  -1.94364   -1.94289   -1.94282   -1.94279   -0.80680   -0.80624   -0.80623   -0.79600
  -0.79339   -0.79324   -0.79317   -0.79308   -0.79211   -0.78805   -0.78802   -0.78763
  -0.39869   -0.34531   -0.34131   -0.33600   -0.31906   -0.31091   -0.30982   -0.30942
   0.06808    0.07114    0.07500    0.10039    0.10845    0.10958    0.15922    0.15957
   0.16000    0.16050    0.17654    0.18958    0.19793    0.20535    0.20663    0.21439
   0.22824    0.23057    0.23443    0.23795    0.24520    0.26541    0.27890    0.27924
 prteigrs : prtvol=0 or 1, do not print more k-points.
 

--- !EnergyTerms
iteration_state     : {dtset: 1, }
comment             : Components of total free energy in Hartree
kinetic             :  1.46303139145596E+02
hartree             :  5.62578916024127E+01
xc                  : -9.09278955301991E+01
Ewald energy        : -2.69576305565099E+02
psp_core            :  1.49595106529080E+01
local_psp           : -2.06535245108657E+02
non_local_psp       : -9.12133794448601E+00
total_energy        : -3.58640242747525E+02
total_energy_eV     : -9.75909731304647E+03
band_energy         : -3.13541497625227E+01
...

 
 Cartesian components of stress tensor (hartree/bohr^3)
  sigma(1 1)= -1.99004496E-04  sigma(3 2)= -3.62965799E-08
  sigma(2 2)= -2.22149906E-04  sigma(3 1)=  5.08443828E-09
  sigma(3 3)= -5.62368083E-04  sigma(2 1)=  1.05297108E-07
 
-Cartesian components of stress tensor (GPa)         [Pressure=  9.6454E+00 GPa]
- sigma(1 1)= -5.85491343E+00  sigma(3 2)= -1.06788207E-03
- sigma(2 2)= -6.53587477E+00  sigma(3 1)=  1.49589313E-04
- sigma(3 3)= -1.65454374E+01  sigma(2 1)=  3.09794734E-03
 
================================================================================
== DATASET  2 ==================================================================
-   mpi_nproc: 28, omp_nthreads: -1 (-1 if OMP is not activated)
 

--- !DatasetInfo
iteration_state: {dtset: 2, }
dimensions: {natom: 12, nkpt: 112, mband: 48, nsppol: 1, nspinor: 1, nspden: 1, mpw: 5294, }
cutoff_energies: {ecut:  25.0, pawecutdg:  25.0, }
electrons: {nelect:   9.60000000E+01, charge:   0.00000000E+00, occopt:   1.00000000E+00, tsmear:   4.00000000E-02, }
meta: {optdriver: 0, ionmov: 0, optcell: 0, iscf: 7, paral_kgb: 0, }
...

 mkfilename : getwfk/=0, take file _WFK from output of DATASET   1.
 
 Exchange-correlation functional for the present dataset will be:
  GGA: Perdew-Burke-Ernzerhof functional - ixc=11
 Citation for XC functional:
  J.P.Perdew, K.Burke, M.Ernzerhof, PRL 77, 3865 (1996)
 
 Real(R)+Recip(G) space primitive vectors, cartesian coordinates (Bohr,Bohr^-1):
 R(1)=  9.5914335  0.0000000  0.0000000  G(1)=  0.1042597  0.0000000  0.0000000
 R(2)=  0.0000000  9.5914335  0.0000000  G(2)=  0.0000000  0.1042597  0.0000000
 R(3)=  0.0000000  0.0000000  9.5914335  G(3)=  0.0000000  0.0000000  0.1042597
 Unit cell volume ucvol=  8.8236964E+02 bohr^3
 Angles (23,13,12)=  9.00000000E+01  9.00000000E+01  9.00000000E+01 degrees
 
 getcut: wavevector=  0.0000  0.0000  0.0000  ngfft=  45  45  45
         ecut(hartree)=     25.000   => boxcut(ratio)=   2.03814
--------------------------------------------------------------------------------
 
-inwffil : will read wavefunctions from disk file o_DS1_WFK
_setup2: Arith. and geom. avg. npw (full set) are    5268.875    5268.869
  initberry: for direction 1, nkstr =   6, nstr =     36
  initberry: for direction 2, nkstr =   6, nstr =     36
  initberry: for direction 3, nkstr =   6, nstr =     36
 
 initberry: COMMENT - 
  As a rough estimate,
  to be below the critical field, the bandgap of your system
  should be larger than    0.00 eV.
 
 
================================================================================

--- !BeginCycle
iteration_state: {dtset: 2, }
solver: {iscf: 7, nstep: 100, nline: 4, wfoptalg: 0, }
tolerances: {toldfe: 1.00E-10, }
...
 
     iter   Etot(hartree)      deltaE(h)  residm     vres2
 ETOT  1  -358.64024274751    -3.586E+02 4.258E-15 7.755E-08
 ETOT  2  -358.64024274749     1.330E-11 7.032E-15 8.150E-08
 ETOT  3  -358.64024274753    -3.502E-11 7.682E-13 9.502E-10
 
 At SCF step    3, etot is converged : 
  for the second time, diff in etot=  3.502E-11 < toldfe=  1.000E-10
 
 Computing the polarization (Berry phase) for reciprocal vector:
  0.16667  0.00000  0.00000 (in reduced coordinates)
  0.01738  0.00000  0.00000 (in cartesian coordinates - atomic units)
 Number of strings:    36
 Number of k points in string:    6
 
 Summary of the results
 Electronic Berry phase    -5.521994239E-01
            Ionic phase     5.513518179E-01
            Total phase    -8.476059954E-04
    Remapping in [-1,1]    -8.476059954E-04
 
           Polarization    -9.213549657E-06 (a.u. of charge)/bohr^2
           Polarization    -5.271510460E-04 C/m^2
 
 
 Computing the polarization (Berry phase) for reciprocal vector:
  0.00000  0.16667  0.00000 (in reduced coordinates)
  0.00000  0.01738  0.00000 (in cartesian coordinates - atomic units)
 Number of strings:    36
 Number of k points in string:    6
 
 Summary of the results
 Electronic Berry phase    -7.221644339E-01
            Ionic phase    -3.576259879E-01
            Total phase    -1.079790422E+00
    Remapping in [-1,1]     9.202095782E-01
 
           Polarization     1.000275681E-02 (a.u. of charge)/bohr^2
           Polarization     5.723053451E-01 C/m^2
 
 
 Computing the polarization (Berry phase) for reciprocal vector:
  0.00000  0.00000  0.16667 (in reduced coordinates)
  0.00000  0.00000  0.01738 (in cartesian coordinates - atomic units)
 Number of strings:    36
 Number of k points in string:    6
 
 Summary of the results
 Electronic Berry phase    -9.160353288E-01
            Ionic phase     9.156714979E-01
            Total phase    -3.638309519E-04
    Remapping in [-1,1]    -3.638309519E-04
 
           Polarization    -3.954873562E-06 (a.u. of charge)/bohr^2
           Polarization    -2.262771475E-04 C/m^2
 
 
 Polarization in cartesian coordinates (a.u.):
 (the sum of the electronic and ionic Berry phase has been folded into [-1, 1])
     Electronic berry phase:       -0.600245496E-02  -0.784998916E-02  -0.995738236E-02
     Ionic:                         0.599324141E-02  -0.388742507E-02   0.995342749E-02  
     Total:                        -0.921354966E-05   0.100027568E-01  -0.395487356E-05
 
 Polarization in cartesian coordinates (C/m^2):
 (the sum of the electronic and ionic Berry phase has been folded into [-1, 1])
     Electronic berry phase:       -0.343429029E+00  -0.449135257E+00  -0.569709257E+00
     Ionic:                         0.342901878E+00  -0.222418098E+00   0.569482980E+00  
     Total:                        -0.527151046E-03   0.572305345E+00  -0.226277148E-03
 
 Stress tensor under a constant electric field:
 
 Cartesian components of Maxwell stress tensor (hartree/bohr^3)
 Maxstr(1 1)=  0.00000000E+00 Maxstr(3 2)=  0.00000000E+00
 Maxstr(2 2)=  0.00000000E+00 Maxstr(3 1)=  0.00000000E+00
 Maxstr(3 3)=  0.00000000E+00 Maxstr(2 1)=  0.00000000E+00
 
 
 Cartesian components of stress tensor (hartree/bohr^3)
  sigma(1 1)= -1.99008100E-04  sigma(3 2)= -3.64570717E-08
  sigma(2 2)= -2.22153022E-04  sigma(3 1)=  4.95568497E-09
  sigma(3 3)= -5.62370896E-04  sigma(2 1)=  1.06139334E-07
 

--- !ResultsGS
iteration_state: {dtset: 2, }
comment   : Summary of ground state results
lattice_vectors:
- [  9.5914335,   0.0000000,   0.0000000, ]
- [  0.0000000,   9.5914335,   0.0000000, ]
- [  0.0000000,   0.0000000,   9.5914335, ]
lattice_lengths: [   9.59143,    9.59143,    9.59143, ]
lattice_angles: [ 90.000,  90.000,  90.000, ] # degrees, (23, 13, 12)
lattice_volume:   8.8236964E+02
convergence: {deltae: -3.502E-11, res2:  9.502E-10, residm:  7.682E-13, diffor: null, }
etotal    :  -3.58640243E+02
entropy   :   0.00000000E+00
fermie    :   2.79241109E-01
cartesian_stress_tensor: # hartree/bohr^3
- [ -1.99008100E-04,   1.06139334E-07,   4.95568497E-09, ]
- [  1.06139334E-07,  -2.22153022E-04,  -3.64570717E-08, ]
- [  4.95568497E-09,  -3.64570717E-08,  -5.62370896E-04, ]
pressure_GPa:   9.6455E+00
xred      :
- [  1.2797E-03,   4.2000E-03,  -1.5696E-03, Hf]
- [  4.6853E-01,   5.0422E-01,  -6.2730E-02, Hf]
- [  1.2441E-03,   5.0423E-01,   4.3723E-01, Hf]
- [  4.6851E-01,   4.2126E-03,   4.9846E-01, Hf]
- [  2.7569E-01,   2.5125E-01,   2.0452E-01,  O]
- [  1.9417E-01,   2.5130E-01,   7.0451E-01,  O]
- [  8.0761E-01,   6.4225E-01,   9.8339E-02,  O]
- [  6.6229E-01,   6.4228E-01,   5.9846E-01,  O]
- [  2.7570E-01,   7.5120E-01,   2.3120E-01,  O]
- [  1.9421E-01,   7.5123E-01,   7.3119E-01,  O]
- [  8.0771E-01,   1.4194E-01,   3.3741E-01,  O]
- [  6.6205E-01,   1.4189E-01,   8.3753E-01,  O]
cartesian_forces: # hartree/bohr
- [  2.32519421E-07,   1.13836510E-07,  -4.91319579E-07, ]
- [ -1.44170869E-06,   2.95273206E-07,  -7.15230941E-06, ]
- [ -2.16643039E-06,   7.08983012E-07,   5.05297908E-06, ]
- [  1.08695876E-06,   5.21466364E-06,   3.75991930E-06, ]
- [ -1.29393323E-05,  -1.28842851E-05,  -1.29010834E-05, ]
- [  1.54663688E-05,  -1.61478980E-05,  -1.62265911E-05, ]
- [  2.12290718E-05,   1.44117362E-05,   6.73003231E-06, ]
- [ -1.73081998E-05,   1.48207792E-05,   2.82494655E-06, ]
- [ -1.54594985E-05,  -1.79054054E-05,   1.18412580E-05, ]
- [  1.31125476E-05,  -1.52901929E-05,   1.58099062E-05, ]
- [  1.63968681E-05,   1.45513604E-05,  -1.76881277E-06, ]
- [ -1.82091648E-05,   1.21111491E-05,  -7.47892521E-06, ]
force_length_stats: {min:   5.55354806E-07, max:   2.76272588E-05, mean:   1.80466893E-05, }
...

 Integrated electronic density in atomic spheres:
 ------------------------------------------------
 Atom  Sphere_radius  Integrated_density
    1        2.00000          8.33907020
    2        2.00000          8.33618174
    3        2.00000          8.33556355
    4        2.00000          8.32896022
    5        2.00000          6.38147339
    6        2.00000          6.38035862
    7        2.00000          6.35650434
    8        2.00000          6.36283345
    9        2.00000          6.38217655
   10        2.00000          6.38407438
   11        2.00000          6.35681127
   12        2.00000          6.35590105
================================================================================
 
 ----iterations are completed or convergence reached----
 
 Mean square residual over all n,k,spin=   14.585E-14; max=  76.817E-14
 reduced coordinates (array xred) for   12 atoms
       0.001279658981      0.004200044262     -0.001569566359
       0.468528391730      0.504224283000     -0.062729964447
       0.001244077529      0.504225536370      0.437230984260
       0.468509288090      0.004212631706      0.498460976190
       0.275688131960      0.251247792390      0.204524612360
       0.194166830190      0.251296348650      0.704510968910
       0.807608511180      0.642246384540      0.098338891267
       0.662294904840      0.642279880470      0.598459226660
       0.275702505040      0.751200449770      0.231204054130
       0.194212532580      0.751234461400      0.731185402900
       0.807709773710      0.141940857730      0.337406516670
       0.662052614160      0.141891169720      0.837530717460
 rms dE/dt=  2.0994E-04; max dE/dt=  1.7774E-04; dE/dt below (all hartree)
    1      -0.000308563133      0.000004911038      0.000012158747
    2      -0.000292504885      0.000003170800      0.000076047188
    3      -0.000285553765     -0.000000797270     -0.000041019024
    4      -0.000316758431     -0.000044013206     -0.000028616728
    5      -0.000182226193      0.000129581657      0.000131186172
    6      -0.000454677585      0.000160884383      0.000163082558
    7      -0.000509950169     -0.000132226316     -0.000057104369
    8      -0.000140322491     -0.000136149625     -0.000019648999
    9      -0.000158054186      0.000177741398     -0.000106128350
   10      -0.000432101066      0.000152657762     -0.000144193376
   11      -0.000463602408     -0.000133565512      0.000024411738
   12      -0.000131680945     -0.000110160388      0.000079179902
 
 cartesian coordinates (angstrom) at end:
    1      0.00649499617335     0.02131761025631    -0.00796644078409
    2      2.37804771215625     2.55922463561774    -0.31839020018833
    3      0.00631440009673     2.55923099718241     2.21919559231856
    4      2.37795075033238     0.02138149868428     2.52997257999873
    5      1.39927386055595     1.27522525512533     1.03807857770682
    6      0.98550694997380     1.27547170572478     3.57579332944859
    7      4.09907191587285     3.25976519748692     0.49912572967026
    8      3.36152282556895     3.25993520835736     3.03752050014024
    9      1.39934681210086     3.81276896443822     1.17349189861250
   10      0.98573891556201     3.81294159277908     3.71118123302635
   11      4.09958588072972     0.72043047538694     1.71252971900172
   12      3.36029306274684     0.72017828051340     4.25094410855702
 
 cartesian forces (hartree/bohr) at end:
    1      0.00000023251942     0.00000011383651    -0.00000049131958
    2     -0.00000144170869     0.00000029527321    -0.00000715230941
    3     -0.00000216643039     0.00000070898301     0.00000505297908
    4      0.00000108695876     0.00000521466364     0.00000375991930
    5     -0.00001293933228    -0.00001288428506    -0.00001290108338
    6      0.00001546636875    -0.00001614789797    -0.00001622659111
    7      0.00002122907185     0.00001441173617     0.00000673003231
    8     -0.00001730819977     0.00001482077921     0.00000282494655
    9     -0.00001545949849    -0.00001790540536     0.00001184125799
   10      0.00001311254755    -0.00001529019290     0.00001580990623
   11      0.00001639686807     0.00001455136041    -0.00000176881277
   12     -0.00001820916478     0.00001211114913    -0.00000747892521
 frms,max,avg= 1.1778384E-05 2.1229072E-05   3.194E-05 -6.259E-07 -7.763E-07 h/b
 
 cartesian forces (eV/Angstrom) at end:
    1      0.00001195662835     0.00000585370819    -0.00002526466645
    2     -0.00007413563544     0.00001518355745    -0.00036778650624
    3     -0.00011140232026     0.00003645736926     0.00025983460979
    4      0.00005589366186     0.00026814876333     0.00019334280805
    5     -0.00066536716197    -0.00066253652031    -0.00066340032497
    6      0.00079531259136    -0.00083035822999    -0.00083440479352
    7      0.00109164267396     0.00074108120806     0.00034607214675
    8     -0.00089002334252     0.00076211504498     0.00014526457992
    9     -0.00079495930849    -0.00092073288576     0.00060890191649
   10      0.00067427424888    -0.00078625326542     0.00081297799736
   11      0.00084316078603     0.00074826097430    -0.00009095600223
   12     -0.00093635282177     0.00062278027592    -0.00038458176496
 frms,max,avg= 6.0566879E-04 1.0916427E-03   1.642E-03 -3.218E-05 -3.992E-05 e/A
 length scales=  9.591433488838  9.591433488838  9.591433488838 bohr
              =  5.075568000000  5.075568000000  5.075568000000 angstroms
 prteigrs : about to open file o_DS2_EIG
 Fermi (or HOMO) energy (hartree) =   0.27924   Average Vxc (hartree)=  -0.44623
 Eigenvalues (hartree) for nkpt= 112  k points:
 kpt#   1, nband= 48, wtk=  0.00463, kpt=  0.0000  0.0000  0.0000 (reduced coord)
  -1.94364   -1.94289   -1.94282   -1.94279   -0.80680   -0.80624   -0.80623   -0.79600
  -0.79339   -0.79324   -0.79317   -0.79308   -0.79211   -0.78805   -0.78802   -0.78763
  -0.39869   -0.34531   -0.34131   -0.33600   -0.31906   -0.31091   -0.30982   -0.30942
   0.06808    0.07114    0.07500    0.10039    0.10845    0.10958    0.15922    0.15957
   0.16000    0.16050    0.17654    0.18958    0.19793    0.20535    0.20663    0.21439
   0.22824    0.23057    0.23443    0.23795    0.24520    0.26541    0.27890    0.27924
 prteigrs : prtvol=0 or 1, do not print more k-points.
 

--- !EnergyTerms
iteration_state     : {dtset: 2, }
comment             : Components of total free energy in Hartree
kinetic             :  1.46303146847103E+02
hartree             :  5.62578967982548E+01
xc                  : -9.09278968984538E+01
Ewald energy        : -2.69576305565099E+02
psp_core            :  1.49595106529080E+01
local_psp           : -2.06535253203806E+02
non_local_psp       : -9.12134137843381E+00
electric            :  0.00000000000000E+00
kohn_sham           : -3.58640242747527E+02
total_energy        : -3.58640242747527E+02
total_energy_eV     : -9.75909731304654E+03
band_energy         : -3.13541544365811E+01
...

 
Constant unreduced E calculation  - final values:
 (a. u.)
       E:   0.000000000E+00   0.000000000E+00   0.000000000E+00  
       P:  -9.213549657E-06   1.000275681E-02  -3.954873562E-06
 
    ebar:   0.000000000E+00   0.000000000E+00   0.000000000E+00  
    pbar:  -1.110504607E-03   1.205627356E+00  -4.766789644E-04
 
       e:   0.000000000E+00   0.000000000E+00   0.000000000E+00  
       p:  -8.476059954E-04   9.202095782E-01  -3.638309519E-04
 
 (S.I.), that is V/m for E, and C/m^2 for P
-      E:   0.000000000E+00   0.000000000E+00   0.000000000E+00  
       P:  -5.271510460E-04   5.723053451E-01  -2.262771475E-04  
 
 
 Please check: COMMENT - 
  As a rough estimate,
  to be below the critical field, the bandgap of your system
  should be larger than    0.00 eV.
 
--------------------------------------------------------------------------------
 
 Cartesian components of stress tensor (hartree/bohr^3)
  sigma(1 1)= -1.99008100E-04  sigma(3 2)= -3.64570717E-08
  sigma(2 2)= -2.22153022E-04  sigma(3 1)=  4.95568497E-09
  sigma(3 3)= -5.62370896E-04  sigma(2 1)=  1.06139334E-07
 
-Cartesian components of stress tensor (GPa)         [Pressure=  9.6455E+00 GPa]
- sigma(1 1)= -5.85501945E+00  sigma(3 2)= -1.07260390E-03
- sigma(2 2)= -6.53596646E+00  sigma(3 1)=  1.45801261E-04
- sigma(3 3)= -1.65455202E+01  sigma(2 1)=  3.12272650E-03
 
== END DATASET(S) ==============================================================
================================================================================
  
 -outvars: echo values of variables after computation  --------
            acell      9.5914334888E+00  9.5914334888E+00  9.5914334888E+00 Bohr
              amu      1.78490000E+02  1.59994000E+01
         berryopt1         -1
         berryopt2          4
          chkprim           0
             ecut      2.50000000E+01 Hartree
           ecutsm      5.00000000E-01 Hartree
           etotal1    -3.5864024275E+02
           etotal2    -3.5864024275E+02
            fcart1     3.9662242575E-07  4.3960019169E-07  1.8759516004E-07
                      -1.7408539712E-06 -9.9721666861E-08 -6.3011755735E-06
                      -1.7875429787E-06  1.0455888619E-07  4.1334477362E-06
                       7.8709830230E-07  5.7768921621E-06  2.9299428207E-06
                      -1.2688587383E-05 -1.2816630956E-05 -1.2773529285E-05
                       1.5162386657E-05 -1.6111000308E-05 -1.6157949987E-05
                       2.0903858153E-05  1.4408613421E-05  6.7140733385E-06
                      -1.7123076933E-05  1.4881952270E-05  2.8047173729E-06
                      -1.5049912374E-05 -1.7910322457E-05  1.2042938903E-05
                       1.2863767061E-05 -1.5227698666E-05  1.5614058746E-05
                       1.6219912832E-05  1.4513441349E-05 -1.5257247671E-06
                      -1.7943671792E-05  1.2040315774E-05 -7.6683944645E-06
            fcart2     2.3251942088E-07  1.1383650951E-07 -4.9131957916E-07
                      -1.4417086915E-06  2.9527320580E-07 -7.1523094058E-06
                      -2.1664303869E-06  7.0898301233E-07  5.0529790845E-06
                       1.0869587565E-06  5.2146636420E-06  3.7599193041E-06
                      -1.2939332276E-05 -1.2884285056E-05 -1.2901083383E-05
                       1.5466368753E-05 -1.6147897973E-05 -1.6226591111E-05
                       2.1229071846E-05  1.4411736170E-05  6.7300323104E-06
                      -1.7308199774E-05  1.4820779208E-05  2.8249465482E-06
                      -1.5459498494E-05 -1.7905405357E-05  1.1841257987E-05
                       1.3112547553E-05 -1.5290192898E-05  1.5809906233E-05
                       1.6396868070E-05  1.4551360405E-05 -1.7688127739E-06
                      -1.8209164776E-05  1.2111149130E-05 -7.4789252140E-06
-          fftalg         512
           getwfk1          0
           getwfk2          1
           istwfk        1    0    0    1    0    0    0    0    0    0
                         0    0    0    0    0    0    1    0    0    1
                         0    0    0    0    0    0    0    0    0    0
                         0    0    0    0    0    0    0    0    0    0
                         0    0    0    0    0    0    0    0    0    0
                       outvar_i_n : Printing only first  50 k-points.
              ixc          11
           jdtset        1    2
              kpt      0.00000000E+00  0.00000000E+00  0.00000000E+00
                       1.66666667E-01  0.00000000E+00  0.00000000E+00
                       3.33333333E-01  0.00000000E+00  0.00000000E+00
                       5.00000000E-01  0.00000000E+00  0.00000000E+00
                       0.00000000E+00  1.66666667E-01  0.00000000E+00
                       1.66666667E-01  1.66666667E-01  0.00000000E+00
                       3.33333333E-01  1.66666667E-01  0.00000000E+00
                       5.00000000E-01  1.66666667E-01  0.00000000E+00
                      -3.33333333E-01  1.66666667E-01  0.00000000E+00
                      -1.66666667E-01  1.66666667E-01  0.00000000E+00
                       0.00000000E+00  3.33333333E-01  0.00000000E+00
                       1.66666667E-01  3.33333333E-01  0.00000000E+00
                       3.33333333E-01  3.33333333E-01  0.00000000E+00
                       5.00000000E-01  3.33333333E-01  0.00000000E+00
                      -3.33333333E-01  3.33333333E-01  0.00000000E+00
                      -1.66666667E-01  3.33333333E-01  0.00000000E+00
                       0.00000000E+00  5.00000000E-01  0.00000000E+00
                       1.66666667E-01  5.00000000E-01  0.00000000E+00
                       3.33333333E-01  5.00000000E-01  0.00000000E+00
                       5.00000000E-01  5.00000000E-01  0.00000000E+00
                       0.00000000E+00  0.00000000E+00  1.66666667E-01
                       1.66666667E-01  0.00000000E+00  1.66666667E-01
                       3.33333333E-01  0.00000000E+00  1.66666667E-01
                       5.00000000E-01  0.00000000E+00  1.66666667E-01
                      -3.33333333E-01  0.00000000E+00  1.66666667E-01
                      -1.66666667E-01  0.00000000E+00  1.66666667E-01
                       0.00000000E+00  1.66666667E-01  1.66666667E-01
                       1.66666667E-01  1.66666667E-01  1.66666667E-01
                       3.33333333E-01  1.66666667E-01  1.66666667E-01
                       5.00000000E-01  1.66666667E-01  1.66666667E-01
                      -3.33333333E-01  1.66666667E-01  1.66666667E-01
                      -1.66666667E-01  1.66666667E-01  1.66666667E-01
                       0.00000000E+00  3.33333333E-01  1.66666667E-01
                       1.66666667E-01  3.33333333E-01  1.66666667E-01
                       3.33333333E-01  3.33333333E-01  1.66666667E-01
                       5.00000000E-01  3.33333333E-01  1.66666667E-01
                      -3.33333333E-01  3.33333333E-01  1.66666667E-01
                      -1.66666667E-01  3.33333333E-01  1.66666667E-01
                       0.00000000E+00  5.00000000E-01  1.66666667E-01
                       1.66666667E-01  5.00000000E-01  1.66666667E-01
                       3.33333333E-01  5.00000000E-01  1.66666667E-01
                       5.00000000E-01  5.00000000E-01  1.66666667E-01
                      -3.33333333E-01  5.00000000E-01  1.66666667E-01
                      -1.66666667E-01  5.00000000E-01  1.66666667E-01
                       0.00000000E+00 -3.33333333E-01  1.66666667E-01
                       1.66666667E-01 -3.33333333E-01  1.66666667E-01
                       3.33333333E-01 -3.33333333E-01  1.66666667E-01
                       5.00000000E-01 -3.33333333E-01  1.66666667E-01
                      -3.33333333E-01 -3.33333333E-01  1.66666667E-01
                      -1.66666667E-01 -3.33333333E-01  1.66666667E-01
                       outvar_i_n : Printing only first  50 k-points.
           kptopt           2
         kptrlatt        6    0    0      0    6    0      0    0    6
          kptrlen      5.75486009E+01
P           mkmem           4
            natom          12
            nband          48
           ndtset           2
            ngfft          45      45      45
             nkpt         112
            nstep         100
             nsym           1
           ntypat           2
              occ      2.000000  2.000000  2.000000  2.000000  2.000000  2.000000
                       2.000000  2.000000  2.000000  2.000000  2.000000  2.000000
                       2.000000  2.000000  2.000000  2.000000  2.000000  2.000000
                       2.000000  2.000000  2.000000  2.000000  2.000000  2.000000
                       2.000000  2.000000  2.000000  2.000000  2.000000  2.000000
                       2.000000  2.000000  2.000000  2.000000  2.000000  2.000000
                       2.000000  2.000000  2.000000  2.000000  2.000000  2.000000
                       2.000000  2.000000  2.000000  2.000000  2.000000  2.000000
        pawecutdg      2.50000000E+01 Hartree
         pawxcdev           0
            rfdir1          1       1       1
            rfdir2          0       0       0
          spgroup           1
           strten1    -1.9900449625E-04 -2.2214990561E-04 -5.6236808278E-04
                      -3.6296579938E-08  5.0844382775E-09  1.0529710757E-07
           strten2    -1.9900809977E-04 -2.2215302209E-04 -5.6237089637E-04
                      -3.6457071651E-08  4.9556849683E-09  1.0613933411E-07
        symmorphi           0
           toldfe      1.00000000E-10 Hartree
           tolmxf      1.00000000E-05
           tsmear      4.00000000E-02 Hartree
            typat      1  1  1  1  2  2  2  2  2  2  2  2
              wtk        0.00463    0.00926    0.00926    0.00463    0.00926    0.00926
                         0.00926    0.00926    0.00926    0.00926    0.00926    0.00926
                         0.00926    0.00926    0.00926    0.00926    0.00463    0.00926
                         0.00926    0.00463    0.00926    0.00926    0.00926    0.00926
                         0.00926    0.00926    0.00926    0.00926    0.00926    0.00926
                         0.00926    0.00926    0.00926    0.00926    0.00926    0.00926
                         0.00926    0.00926    0.00926    0.00926    0.00926    0.00926
                         0.00926    0.00926    0.00926    0.00926    0.00926    0.00926
                         0.00926    0.00926
                       outvars : Printing only first  50 k-points.
           xangst      6.4949961734E-03  2.1317610256E-02 -7.9664407841E-03
                       2.3780477122E+00  2.5592246356E+00 -3.1839020019E-01
                       6.3144000967E-03  2.5592309972E+00  2.2191955923E+00
                       2.3779507503E+00  2.1381498684E-02  2.5299725800E+00
                       1.3992738606E+00  1.2752252551E+00  1.0380785777E+00
                       9.8550694997E-01  1.2754717057E+00  3.5757933294E+00
                       4.0990719159E+00  3.2597651975E+00  4.9912572967E-01
                       3.3615228256E+00  3.2599352084E+00  3.0375205001E+00
                       1.3993468121E+00  3.8127689644E+00  1.1734918986E+00
                       9.8573891556E-01  3.8129415928E+00  3.7111812330E+00
                       4.0995858807E+00  7.2043047539E-01  1.7125297190E+00
                       3.3602930627E+00  7.2017828051E-01  4.2509441086E+00
            xcart      1.2273764002E-02  4.0284445192E-02 -1.5054391336E-02
                       4.4938589069E+00  4.8362336739E+00 -6.0167028175E-01
                       1.1932486876E-02  4.8362456955E+00  4.1936719048E+00
                       4.4936756756E+00  4.0405176824E-02  4.7809552999E+00
                       2.6442443814E+00  2.4098264899E+00  1.9616842163E+00
                       1.8623382375E+00  2.4102922141E+00  6.7572701005E+00
                       7.7461233200E+00  6.1600634808E+00  9.4321093495E-01
                       6.3523575298E+00  6.1603847547E+00  5.7400818683E+00
                       2.6443822398E+00  7.2050891508E+00  2.2175783075E+00
                       1.8627765889E+00  7.2054153710E+00  7.0131161599E+00
                       7.7470945728E+00  1.3614162963E+00  3.2362121633E+00
                       6.3500336148E+00  1.3609397170E+00  8.0331201714E+00
             xred      1.2796589807E-03  4.2000442623E-03 -1.5695663587E-03
                       4.6852839173E-01  5.0422428300E-01 -6.2729964447E-02
                       1.2440775292E-03  5.0422553637E-01  4.3723098426E-01
                       4.6850928809E-01  4.2126317063E-03  4.9846097619E-01
                       2.7568813196E-01  2.5124779239E-01  2.0452461236E-01
                       1.9416683019E-01  2.5129634865E-01  7.0451096891E-01
                       8.0760851118E-01  6.4224638454E-01  9.8338891267E-02
                       6.6229490484E-01  6.4227988047E-01  5.9845922666E-01
                       2.7570250504E-01  7.5120044977E-01  2.3120405413E-01
                       1.9421253258E-01  7.5123446140E-01  7.3118540290E-01
                       8.0770977371E-01  1.4194085773E-01  3.3740651667E-01
                       6.6205261416E-01  1.4189116972E-01  8.3753071746E-01
            znucl       72.00000    8.00000
 
================================================================================


- Timing analysis has been suppressed with timopt=0



================================================================================

 Suggested references for the acknowledgment of ABINIT usage.

 The users of ABINIT have little formal obligations with respect to the ABINIT group
 (those specified in the GNU General Public License, http://www.gnu.org/copyleft/gpl.txt).
 However, it is common practice in the scientific literature,
 to acknowledge the efforts of people that have made the research possible.
 In this spirit, please find below suggested citations of work written by ABINIT developers,
 corresponding to implementations inside of ABINIT that you have used in the present run.
 Note also that it will be of great value to readers of publications presenting these results,
 to read papers enabling them to understand the theoretical formalism and details
 of the ABINIT implementation.
 For information on why they are suggested, see also https://docs.abinit.org/theory/acknowledgments.
-
- [1] The Abinit project: Impact, environment and recent developments.
- Computer Phys. Comm. 248, 107042 (2020).
- X.Gonze, B. Amadon, G. Antonius, F.Arnardi, L.Baguet, J.-M.Beuken,
- J.Bieder, F.Bottin, J.Bouchet, E.Bousquet, N.Brouwer, F.Bruneval,
- G.Brunin, T.Cavignac, J.-B. Charraud, Wei Chen, M.Cote, S.Cottenier,
- J.Denier, G.Geneste, Ph.Ghosez, M.Giantomassi, Y.Gillet, O.Gingras,
- D.R.Hamann, G.Hautier, Xu He, N.Helbig, N.Holzwarth, Y.Jia, F.Jollet,
- W.Lafargue-Dit-Hauret, K.Lejaeghere, M.A.L.Marques, A.Martin, C.Martins,
- H.P.C. Miranda, F.Naccarato, K. Persson, G.Petretto, V.Planes, Y.Pouillon,
- S.Prokhorenko, F.Ricci, G.-M.Rignanese, A.H.Romero, M.M.Schmitt, M.Torrent,
- M.J.van Setten, B.Van Troeye, M.J.Verstraete, G.Zerah and J.W.Zwanzig
- Comment: the fifth generic paper describing the ABINIT project.
- Note that a version of this paper, that is not formatted for Computer Phys. Comm. 
- is available at https://www.abinit.org/sites/default/files/ABINIT20.pdf .
- The licence allows the authors to put it on the Web.
- DOI and bibtex: see https://docs.abinit.org/theory/bibliography/#gonze2020
-
- [2] Optimized norm-conserving Vanderbilt pseudopotentials.
- D.R. Hamann, Phys. Rev. B 88, 085117 (2013).
- Comment: Some pseudopotential generated using the ONCVPSP code were used.
- DOI and bibtex: see https://docs.abinit.org/theory/bibliography/#hamann2013
-
- [3] ABINIT: Overview, and focus on selected capabilities
- J. Chem. Phys. 152, 124102 (2020).
- A. Romero, D.C. Allan, B. Amadon, G. Antonius, T. Applencourt, L.Baguet,
- J.Bieder, F.Bottin, J.Bouchet, E.Bousquet, F.Bruneval,
- G.Brunin, D.Caliste, M.Cote,
- J.Denier, C. Dreyer, Ph.Ghosez, M.Giantomassi, Y.Gillet, O.Gingras,
- D.R.Hamann, G.Hautier, F.Jollet, G. Jomard,
- A.Martin, 
- H.P.C. Miranda, F.Naccarato, G.Petretto, N.A. Pike, V.Planes,
- S.Prokhorenko, T. Rangel, F.Ricci, G.-M.Rignanese, M.Royo, M.Stengel, M.Torrent,
- M.J.van Setten, B.Van Troeye, M.J.Verstraete, J.Wiktor, J.W.Zwanziger, and X.Gonze.
- Comment: a global overview of ABINIT, with focus on selected capabilities .
- Note that a version of this paper, that is not formatted for J. Chem. Phys 
- is available at https://www.abinit.org/sites/default/files/ABINIT20_JPC.pdf .
- The licence allows the authors to put it on the Web.
- DOI and bibtex: see https://docs.abinit.org/theory/bibliography/#romero2020
-
- [4] Recent developments in the ABINIT software package.
- Computer Phys. Comm. 205, 106 (2016).
- X.Gonze, F.Jollet, F.Abreu Araujo, D.Adams, B.Amadon, T.Applencourt,
- C.Audouze, J.-M.Beuken, J.Bieder, A.Bokhanchuk, E.Bousquet, F.Bruneval
- D.Caliste, M.Cote, F.Dahm, F.Da Pieve, M.Delaveau, M.Di Gennaro,
- B.Dorado, C.Espejo, G.Geneste, L.Genovese, A.Gerossier, M.Giantomassi,
- Y.Gillet, D.R.Hamann, L.He, G.Jomard, J.Laflamme Janssen, S.Le Roux,
- A.Levitt, A.Lherbier, F.Liu, I.Lukacevic, A.Martin, C.Martins,
- M.J.T.Oliveira, S.Ponce, Y.Pouillon, T.Rangel, G.-M.Rignanese,
- A.H.Romero, B.Rousseau, O.Rubel, A.A.Shukri, M.Stankovski, M.Torrent,
- M.J.Van Setten, B.Van Troeye, M.J.Verstraete, D.Waroquier, J.Wiktor,
- B.Xu, A.Zhou, J.W.Zwanziger.
- Comment: the fourth generic paper describing the ABINIT project.
- Note that a version of this paper, that is not formatted for Computer Phys. Comm. 
- is available at https://www.abinit.org/sites/default/files/ABINIT16.pdf .
- The licence allows the authors to put it on the Web.
- DOI and bibtex: see https://docs.abinit.org/theory/bibliography/#gonze2016
-
- And optionally:
-
- [5] ABINIT: First-principles approach of materials and nanosystem properties.
- Computer Phys. Comm. 180, 2582-2615 (2009).
- X. Gonze, B. Amadon, P.-M. Anglade, J.-M. Beuken, F. Bottin, P. Boulanger, F. Bruneval,
- D. Caliste, R. Caracas, M. Cote, T. Deutsch, L. Genovese, Ph. Ghosez, M. Giantomassi
- S. Goedecker, D.R. Hamann, P. Hermet, F. Jollet, G. Jomard, S. Leroux, M. Mancini, S. Mazevet,
- M.J.T. Oliveira, G. Onida, Y. Pouillon, T. Rangel, G.-M. Rignanese, D. Sangalli, R. Shaltaf,
- M. Torrent, M.J. Verstraete, G. Zerah, J.W. Zwanziger
- Comment: the third generic paper describing the ABINIT project.
- Note that a version of this paper, that is not formatted for Computer Phys. Comm. 
- is available at https://www.abinit.org/sites/default/files/ABINIT_CPC_v10.pdf .
- The licence allows the authors to put it on the Web.
- DOI and bibtex: see https://docs.abinit.org/theory/bibliography/#gonze2009
-
- Proc.   0 individual time (sec): cpu=        110.3  wall=        110.7
 
================================================================================
 
 Calculation completed.
.Delivered   0 WARNINGs and   2 COMMENTs to log file.
+Overall time at end (sec) : cpu=       3095.5  wall=       3098.8
