  ABINIT 9.4.1
  
ABI_PSPDIR  found in environment, with value /workspace/jiahaoz/PACKAGE_INSTALL/abinit-9.4.1
-instrng: 75 lines of input have been read from file PATH19
 
 
--- !COMMENT
src_file: m_dtfil.F90
src_line: 1476
message: |
    Output file: PATH19.abo already exists.
...
 
 
--- !COMMENT
src_file: m_dtfil.F90
src_line: 1500
message: |
    Renaming old: PATH19.abo to: PATH19.abo0001
...
 

.Version 9.4.1 of ABINIT 
.(MPI version, prepared for a x86_64_linux_intel19.0 computer) 

.Copyright (C) 1998-2021 ABINIT group . 
 ABINIT comes with ABSOLUTELY NO WARRANTY.
 It is free software, and you are welcome to redistribute it
 under certain conditions (GNU General Public License,
 see ~abinit/COPYING or http://www.gnu.org/copyleft/gpl.txt).

 ABINIT is a project of the Universite Catholique de Louvain,
 Corning Inc. and other collaborators, see ~abinit/doc/developers/contributors.txt .
 Please read https://docs.abinit.org/theory/acknowledgments for suggested
 acknowledgments of the ABINIT effort.
 For more information, see https://www.abinit.org .

.Starting date : Sat  3 Jul 2021.
- ( at 07h50 )
  
 
 ++++++++++++++++++++++++++++++++++++++++++++++++++++++++++++++++++++++++++++++
 
 === Build Information === 
  Version       : 9.4.1
  Build target  : x86_64_linux_intel19.0
  Build date    : 20210409
 
 === Compiler Suite === 
  C compiler       : intel19.0
  C++ compiler     : gnu19.0
  Fortran compiler : intel19.0
  CFLAGS           : -I/include -I/include
  CXXFLAGS         : -I/include -I/include
  FCFLAGS          : -mkl=sequential   -I/workspace/jiahaoz/PACKAGE_INSTALL/abinit_suppo ...
  FC_LDFLAGS       :   -static-intel -static-libgcc
 
 === Optimizations === 
  Debug level        : basic
  Optimization level : standard
  Architecture       : intel_xeon
 
 === Multicore === 
  Parallel build : yes
  Parallel I/O   : 
  openMP support : 
  GPU support    : 
 
 === Connectors / Fallbacks === 
  LINALG flavor  : mkl
  FFT flavor     : dfti
  HDF5           : yes
  NetCDF         : yes
  NetCDF Fortran : yes
  LibXC          : yes
  Wannier90      : no
 
 === Experimental features === 
  Exports             : 
  GW double-precision : 
 
 ++++++++++++++++++++++++++++++++++++++++++++++++++++++++++++++++++++++++++++++
 

 ++++++++++++++++++++++++++++++++++++++++++++++++++++++++++++++++++++++++++++++
 Default optimizations:
   --- None ---


 ++++++++++++++++++++++++++++++++++++++++++++++++++++++++++++++++++++++++++++++


 ++++++++++++++++++++++++++++++++++++++++++++++++++++++++++++++++++++++++++++++
 CPP options activated during the build:

                  CC_INTEL                   CXX_GNU                  FC_INTEL
 
                 HAVE_DFTI HAVE_FC_ALLOCATABLE_DT...             HAVE_FC_ASYNC
 
  HAVE_FC_COMMAND_ARGUMENT      HAVE_FC_COMMAND_LINE        HAVE_FC_CONTIGUOUS
 
           HAVE_FC_CPUTIME             HAVE_FC_ETIME              HAVE_FC_EXIT
 
             HAVE_FC_FLUSH             HAVE_FC_GAMMA            HAVE_FC_GETENV
 
            HAVE_FC_GETPID   HAVE_FC_IEEE_ARITHMETIC   HAVE_FC_IEEE_EXCEPTIONS
 
             HAVE_FC_IOMSG     HAVE_FC_ISO_C_BINDING  HAVE_FC_ISO_FORTRAN_2008
 
        HAVE_FC_LONG_LINES        HAVE_FC_MOVE_ALLOC  HAVE_FC_ON_THE_FLY_SHAPE
 
           HAVE_FC_PRIVATE         HAVE_FC_PROTECTED           HAVE_FC_SHIFTLR
 
         HAVE_FC_STREAM_IO            HAVE_FC_SYSTEM                 HAVE_HDF5
 
             HAVE_HDF5_MPI        HAVE_LIBPAW_ABINIT      HAVE_LIBTETRA_ABINIT
 
                HAVE_LIBXC         HAVE_LINALG_AXPBY        HAVE_LINALG_GEMM3M
 
         HAVE_LINALG_GEMMT  HAVE_LINALG_MKL_IMATCOPY   HAVE_LINALG_MKL_OMATADD
 
  HAVE_LINALG_MKL_OMATCOPY   HAVE_LINALG_MKL_THREADS     HAVE_LINALG_SCALAPACK
 
                  HAVE_MPI                 HAVE_MPI2       HAVE_MPI_IALLGATHER
 
       HAVE_MPI_IALLREDUCE        HAVE_MPI_IALLTOALL       HAVE_MPI_IALLTOALLV
 
           HAVE_MPI_IBCAST         HAVE_MPI_IGATHERV        HAVE_MPI_INTEGER16
 
               HAVE_MPI_IO HAVE_MPI_TYPE_CREATE_S...               HAVE_NETCDF
 
       HAVE_NETCDF_DEFAULT       HAVE_NETCDF_FORTRAN   HAVE_NETCDF_FORTRAN_MPI
 
           HAVE_NETCDF_MPI             HAVE_OS_LINUX         HAVE_TIMER_ABINIT
 
 ++++++++++++++++++++++++++++++++++++++++++++++++++++++++++++++++++++++++++++++

- input  file    -> PATH19
- output file    -> PATH19.abo
- root for input  files -> i
- root for output files -> o
 
 Netcdf library supports MPI-IO
ABI_PSPDIR  found in environment, with value /workspace/jiahaoz/PACKAGE_INSTALL/abinit-9.4.1
-instrng: 75 lines of input have been read from file PATH19
 
 For atom type 1, psp file is /workspace/jiahaoz/PACKAGE_INSTALL/abinit-9.4.1/pbe_s_sr/Hf.psp8
 For atom type 2, psp file is /workspace/jiahaoz/PACKAGE_INSTALL/abinit-9.4.1/pbe_s_sr/O.psp8
  read the values zionpsp= 12.0 , pspcod=   8 , lmax=   3
  read the values zionpsp=  6.0 , pspcod=   8 , lmax=   2
 
 inpspheads: deduce mpsang = 4, n1xccc = 2501.

======================================================= 
 invars1m : enter jdtset= 0
 
 symlatt: the Bravais lattice is cP (primitive cubic)
  xred   is defined in input file
 ingeo: takes atomic coordinates from input array xred
 
--- !COMMENT
src_file: m_ingeo.F90
src_line: 900
message: |
    The tolerance on symmetries =   1.000E-05 is bigger than 1.0e-8.
    In order to avoid spurious effects, the atomic coordinates have been
    symmetrized before storing them in the dataset internal variable.
    So, do not be surprised by the fact that your input variables (xcart, xred, ...)
    do not correspond exactly to the ones echoed by ABINIT, the latter being used to do the calculations.
    This is not a problem per se.
    Still, in order to avoid this symmetrization (e.g. for specific debugging/development), decrease tolsym to 1.0e-8 or lower,
    or (much preferred) use input primitive vectors that are accurate to better than 1.0e-8.
    This message will only be printed once, even if there are other datasets where tolsym is bigger than 1.0e-8.
...
 
 
 symlatt: the Bravais lattice is cP (primitive cubic)
 
 symlatt: the Bravais lattice is cP (primitive cubic)
 
--- !COMMENT
src_file: m_symfind.F90
src_line: 1018
message: |
    The Bravais lattice determined only from the primitive
    vectors, bravais(1)=  7, is more symmetric
    than the real one, iholohedry=  1, obtained by taking into
    account the atomic positions. Start deforming the primitive vector set.
...
 
 
 symlatt: the Bravais lattice is mC (one-face-centered monoclinic)
 
--- !COMMENT
src_file: m_symfind.F90
src_line: 1027
message: |
    The Bravais lattice determined from modified primitive
    vectors, bravais(1)=  2, has a lower symmetry than before,
    but is still more symmetric than the real one, iholohedry=  1
    obtained by taking into account the atomic positions.
...
 
 
 symlatt: the Bravais lattice is aP (primitive triclinic)
 symspgr: spgroup=   1  P1   (=C1^1)
 invars2: take the default value of fband=  1.25000000E-01
 
--- !WARNING
src_file: m_mpinfo.F90
src_line: 2281
message: |
    nkpt*nsppol (112) is not a multiple of nproc_spkpt (36)
    The k-point parallelisation is inefficient. (Ignore this warning if this is not a GS run)
...
 
 
--- !WARNING
src_file: m_mpi_setup.F90
src_line: 707
message: |
    Your number of spins*k-points (=112) will not distribute correctly
    with the current number of processors (=36).
    You will leave some empty.
    YOU ARE STRONGLY ADVICED TO ACTIVATE AUTOMATIC PARALLELIZATION!
    PUT "AUTOPARAL=1" IN THE INPUT FILE.
...
 
 For input ecut=  2.500000E+01 best grid ngfft=      45      45      45
       max ecut=  2.596259E+01
 
 ==== FFT mesh ====
  FFT mesh divisions ........................    45   45   45
  Augmented FFT divisions ...................    45   45   45
  FFT algorithm .............................   512
  FFT cache size ............................    16
 getmpw: optimal value of mpw= 5280
 
 Symmetries : space group P1 (#  1); Bravais aP (primitive triclinic)
 
 getdim_nloc : deduce lmnmax  =  32, lnmax  =   8,
                      lmnmaxso=  32, lnmaxso=   8.
memory: analysis of memory needs
================================================================================
 Values of the parameters that define the memory need of the present run
     intxc =       0    ionmov =       0      iscf =       7    lmnmax =       8
     lnmax =       8     mgfft =      45  mpssoang =       4    mqgrid =    3001
     natom =      12  nloc_mem =       1    nspden =       1   nspinor =       1
    nsppol =       1      nsym =       1    n1xccc =    2501    ntypat =       2
    occopt =       1   xclevel =       2
-    mband =          50        mffmem =           1         mkmem =           4
       mpw =        5280          nfft =       91125          nkpt =         112
================================================================================
P This job should need less than                      45.554 Mbytes of memory.
  Rough estimation (10% accuracy) of disk space for files :
_ WF disk file :    451.174 Mbytes ; DEN or POT disk file :      0.697 Mbytes.
================================================================================
 
 Biggest array : cg(disk), with     16.1153 MBytes.
 memana : allocated an array of     16.115 Mbytes, for testing purposes.
 memana: allocated      45.554Mbytes, for testing purposes. 
 The job will continue.
--------------------------------------------------------------------------------
------------- Echo of variables that govern the present computation ------------
--------------------------------------------------------------------------------
-
- outvars: echo of selected default values                                      
-   iomode0 =  3 , fftalg0 =512 , wfoptalg0 =  0
-
- outvars: echo of global parameters not present in the input file              
-  max_nthreads =    0
-
 -outvars: echo values of preprocessed input variables --------
 
 These variables are accessible in NetCDF format (o_OUT.nc)

            acell      9.5914334888E+00  9.5914334888E+00  9.5914334888E+00 Bohr
              amu      1.78490000E+02  1.59994000E+01
          chkprim           0
             ecut      2.50000000E+01 Hartree
           ecutsm      5.00000000E-01 Hartree
-          fftalg         512
           istwfk        2    0    0    3    0    0    0    0    0    0
                         0    0    0    0    0    0    6    0    0    7
                         0    0    0    0    0    0    0    0    0    0
                         0    0    0    0    0    0    0    0    0    0
                         0    0    0    0    0    0    0    0    0    0
                       outvar_i_n : Printing only first  50 k-points.
              ixc          11
              kpt      0.00000000E+00  0.00000000E+00  0.00000000E+00
                       1.66666667E-01  0.00000000E+00  0.00000000E+00
                       3.33333333E-01  0.00000000E+00  0.00000000E+00
                       5.00000000E-01  0.00000000E+00  0.00000000E+00
                       0.00000000E+00  1.66666667E-01  0.00000000E+00
                       1.66666667E-01  1.66666667E-01  0.00000000E+00
                       3.33333333E-01  1.66666667E-01  0.00000000E+00
                       5.00000000E-01  1.66666667E-01  0.00000000E+00
                      -3.33333333E-01  1.66666667E-01  0.00000000E+00
                      -1.66666667E-01  1.66666667E-01  0.00000000E+00
                       0.00000000E+00  3.33333333E-01  0.00000000E+00
                       1.66666667E-01  3.33333333E-01  0.00000000E+00
                       3.33333333E-01  3.33333333E-01  0.00000000E+00
                       5.00000000E-01  3.33333333E-01  0.00000000E+00
                      -3.33333333E-01  3.33333333E-01  0.00000000E+00
                      -1.66666667E-01  3.33333333E-01  0.00000000E+00
                       0.00000000E+00  5.00000000E-01  0.00000000E+00
                       1.66666667E-01  5.00000000E-01  0.00000000E+00
                       3.33333333E-01  5.00000000E-01  0.00000000E+00
                       5.00000000E-01  5.00000000E-01  0.00000000E+00
                       0.00000000E+00  0.00000000E+00  1.66666667E-01
                       1.66666667E-01  0.00000000E+00  1.66666667E-01
                       3.33333333E-01  0.00000000E+00  1.66666667E-01
                       5.00000000E-01  0.00000000E+00  1.66666667E-01
                      -3.33333333E-01  0.00000000E+00  1.66666667E-01
                      -1.66666667E-01  0.00000000E+00  1.66666667E-01
                       0.00000000E+00  1.66666667E-01  1.66666667E-01
                       1.66666667E-01  1.66666667E-01  1.66666667E-01
                       3.33333333E-01  1.66666667E-01  1.66666667E-01
                       5.00000000E-01  1.66666667E-01  1.66666667E-01
                      -3.33333333E-01  1.66666667E-01  1.66666667E-01
                      -1.66666667E-01  1.66666667E-01  1.66666667E-01
                       0.00000000E+00  3.33333333E-01  1.66666667E-01
                       1.66666667E-01  3.33333333E-01  1.66666667E-01
                       3.33333333E-01  3.33333333E-01  1.66666667E-01
                       5.00000000E-01  3.33333333E-01  1.66666667E-01
                      -3.33333333E-01  3.33333333E-01  1.66666667E-01
                      -1.66666667E-01  3.33333333E-01  1.66666667E-01
                       0.00000000E+00  5.00000000E-01  1.66666667E-01
                       1.66666667E-01  5.00000000E-01  1.66666667E-01
                       3.33333333E-01  5.00000000E-01  1.66666667E-01
                       5.00000000E-01  5.00000000E-01  1.66666667E-01
                      -3.33333333E-01  5.00000000E-01  1.66666667E-01
                      -1.66666667E-01  5.00000000E-01  1.66666667E-01
                       0.00000000E+00 -3.33333333E-01  1.66666667E-01
                       1.66666667E-01 -3.33333333E-01  1.66666667E-01
                       3.33333333E-01 -3.33333333E-01  1.66666667E-01
                       5.00000000E-01 -3.33333333E-01  1.66666667E-01
                      -3.33333333E-01 -3.33333333E-01  1.66666667E-01
                      -1.66666667E-01 -3.33333333E-01  1.66666667E-01
                       outvar_i_n : Printing only first  50 k-points.
           kptopt           2
         kptrlatt        6    0    0      0    6    0      0    0    6
          kptrlen      5.75486009E+01
P           mkmem           4
            natom          12
            nband          50
            ngfft          45      45      45
             nkpt         112
            nstep         100
             nsym           1
           ntypat           2
              occ      2.000000  2.000000  2.000000  2.000000  2.000000  2.000000
                       2.000000  2.000000  2.000000  2.000000  2.000000  2.000000
                       2.000000  2.000000  2.000000  2.000000  2.000000  2.000000
                       2.000000  2.000000  2.000000  2.000000  2.000000  2.000000
                       2.000000  2.000000  2.000000  2.000000  2.000000  2.000000
                       2.000000  2.000000  2.000000  2.000000  2.000000  2.000000
                       2.000000  2.000000  2.000000  2.000000  2.000000  2.000000
                       2.000000  2.000000  2.000000  2.000000  2.000000  2.000000
                       0.000000  0.000000
        pawecutdg      2.50000000E+01 Hartree
         pawxcdev           0
          spgroup           1
        symmorphi           0
           tolmxf      1.00000000E-05
           tolvrs      1.00000000E-18
           tsmear      4.00000000E-02 Hartree
            typat      1  1  1  1  2  2  2  2  2  2  2  2
              wtk        0.00463    0.00926    0.00926    0.00463    0.00926    0.00926
                         0.00926    0.00926    0.00926    0.00926    0.00926    0.00926
                         0.00926    0.00926    0.00926    0.00926    0.00463    0.00926
                         0.00926    0.00463    0.00926    0.00926    0.00926    0.00926
                         0.00926    0.00926    0.00926    0.00926    0.00926    0.00926
                         0.00926    0.00926    0.00926    0.00926    0.00926    0.00926
                         0.00926    0.00926    0.00926    0.00926    0.00926    0.00926
                         0.00926    0.00926    0.00926    0.00926    0.00926    0.00926
                         0.00926    0.00926
                       outvars : Printing only first  50 k-points.
           xangst      8.0660266832E-02  4.9183015255E-02 -4.5493331098E-03
                       8.0659607008E-02  2.5870612178E+00  2.5332913610E+00
                       2.4522543347E+00  4.9182964500E-02  2.5332128927E+00
                       2.4522546393E+00  2.5870612686E+00 -4.4709663398E-03
                       1.0729083822E+00  1.3120334144E+00  3.7601385738E+00
                       1.0735366360E+00  3.8488841697E+00  3.8955278783E+00
                       1.4875896474E+00  3.8485880103E+00  1.3581065784E+00
                       1.4879127581E+00  1.3119104841E+00  1.2226946369E+00
                       4.1871196152E+00  7.5699132588E-01  1.8971441829E+00
                       4.1870017605E+00  3.2957086213E+00  6.8374174362E-01
                       3.4498977789E+00  3.2957541492E+00  3.2218658067E+00
                       3.4490642692E+00  7.5686362459E-01  4.4352909337E+00
            xcart      1.5242581412E-01  9.2942429222E-02 -8.5969936647E-03
                       1.5242456723E-01  4.8888371906E+00  4.7872268871E+00
                       4.6340891008E+00  9.2942333308E-02  4.7870786035E+00
                       4.6340896763E+00  4.8888372866E+00 -8.4489019316E-03
                       2.0275030081E+00  2.4793838304E+00  7.1056321262E+00
                       2.0286902357E+00  7.2733369980E+00  7.3614808330E+00
                       2.8111370317E+00  7.2727773378E+00  2.5664494924E+00
                       2.8117476224E+00  2.4791515259E+00  2.3105580078E+00
                       7.9125093583E+00  1.4305062909E+00  3.5850829402E+00
                       7.9122866452E+00  6.2279867081E+00  1.2920846411E+00
                       6.5193619886E+00  6.2280727433E+00  6.0884440115E+00
                       6.5177868834E+00  1.4302649704E+00  8.3814851844E+00
             xred      1.5891870000E-02  9.6901500000E-03 -8.9632000000E-04
                       1.5891740000E-02  5.0970871000E-01  4.9911485000E-01
                       4.8314875000E-01  9.6901400000E-03  4.9909939000E-01
                       4.8314881000E-01  5.0970872000E-01 -8.8088000000E-04
                       2.1138686000E-01  2.5849982000E-01  7.4083109000E-01
                       2.1151064000E-01  7.5831595000E-01  7.6750580000E-01
                       2.9308831000E-01  7.5825760000E-01  2.6757726000E-01
                       2.9315197000E-01  2.5847560000E-01  2.4089809000E-01
                       8.2495587000E-01  1.4914416000E-01  3.7377968000E-01
                       8.2493265000E-01  6.4932804000E-01  1.3471236000E-01
                       6.7970674000E-01  6.4933701000E-01  6.3477936000E-01
                       6.7954252000E-01  1.4911900000E-01  8.7385115000E-01
            znucl       72.00000    8.00000
 
================================================================================
 
 chkinp: Checking input parameters for consistency.
 DATA TYPE INFORMATION: 
 REAL:      Data type name: REAL(DP) 
            Kind value:      8
            Precision:      15
            Smallest nonnegligible quantity relative to 1: 0.22204460E-015
            Smallest positive number:                      0.22250739E-307
            Largest representable number:                  0.17976931E+309
 INTEGER:   Data type name: INTEGER(default) 
            Kind value: 4
            Bit size:   32
            Largest representable number: 2147483647
 LOGICAL:   Data type name: LOGICAL 
            Kind value: 4
 CHARACTER: Data type name: CHARACTER             Kind value: 1

  ==== OpenMP parallelism is OFF ====
 
  ==== Using MPI-2 specifications ==== 
  MPI-IO support is ON
  xmpi_tag_ub ................       524287
  xmpi_bsize_ch ..............            1
  xmpi_bsize_int .............            4
  xmpi_bsize_sp ..............            4
  xmpi_bsize_dp ..............            8
  xmpi_bsize_spc .............            8
  xmpi_bsize_dpc .............           16
  xmpio_bsize_frm ............            4
  xmpi_address_kind ..........            8
  xmpi_offset_kind ...........            8
  MPI_WTICK ..................   3.712409088190253E-010
 
================================================================================
== DATASET  1 ==================================================================
-   mpi_nproc: 36, omp_nthreads: -1 (-1 if OMP is not activated)
-    --> not optimal distribution: autoparal keyword recommended in input file <--
 
 
--- !COMMENT
src_file: m_xgScalapack.F90
src_line: 236
message: |
    xgScalapack in auto mode
...
 
 
 getdim_nloc : deduce lmnmax  =  32, lnmax  =   8,
                      lmnmaxso=  32, lnmaxso=   8.
 Exchange-correlation functional for the present dataset will be:
  GGA: Perdew-Burke-Ernzerhof functional - ixc=11
 Citation for XC functional:
  J.P.Perdew, K.Burke, M.Ernzerhof, PRL 77, 3865 (1996)
 
 Unit cell volume ucvol=  8.8236964E+02 bohr^3
 Angles (23,13,12)=  9.00000000E+01  9.00000000E+01  9.00000000E+01 degrees
 
 getcut: wavevector=  0.0000  0.0000  0.0000  ngfft=  45  45  45
         ecut(hartree)=     25.000   => boxcut(ratio)=   2.03814
- pspini: atom type   1  psp file is /workspace/jiahaoz/PACKAGE_INSTALL/abinit-9.4.1/pbe_s_sr/Hf.psp8
- pspatm: opening atomic psp file    /workspace/jiahaoz/PACKAGE_INSTALL/abinit-9.4.1/pbe_s_sr/Hf.psp8
- Hf    ONCVPSP  r_core=  1.72  1.72  1.72  2.43
- 72.00000  12.00000    160625                znucl, zion, pspdat
    8   11    3    4       600   0.00000      pspcod,pspxc,lmax,lloc,mmax,r2well
    5.99000000000000    5.40000000000000    0.00000000000000   rchrg,fchrg,qchrg
     nproj     2     2     2     2
     extension_switch     1
  valence charge integrates to:    11.8772505498722     
  pspatm : epsatm=   21.98649506
         --- l  ekb(1:nproj) -->
             0    5.812335   -0.521211
             1   -3.038329    2.466565
             2    2.060039    0.471534
             3    9.947446    0.353012
 pspatm: atomic psp has been read  and splines computed
 
- pspini: atom type   2  psp file is /workspace/jiahaoz/PACKAGE_INSTALL/abinit-9.4.1/pbe_s_sr/O.psp8
- pspatm: opening atomic psp file    /workspace/jiahaoz/PACKAGE_INSTALL/abinit-9.4.1/pbe_s_sr/O.psp8
- O     ONCVPSP  r_core=  1.36  1.46  1.26
-  8.00000   6.00000    151103                znucl, zion, pspdat
    8   11    2    4       600   0.00000      pspcod,pspxc,lmax,lloc,mmax,r2well
    5.99000000000000    4.00000000000000    0.00000000000000   rchrg,fchrg,qchrg
     nproj     2     2     1
     extension_switch     1
  valence charge integrates to:    5.99903187507575     
  pspatm : epsatm=    6.19401560
         --- l  ekb(1:nproj) -->
             0    5.257212    0.704241
             1   -5.135443   -1.451781
             2   -4.371486
 pspatm: atomic psp has been read  and splines computed
 
   1.31998181E+04                                ecore*ucvol(ha*bohr**3)
 ==== Info on pseudopotentials ====
  Norm-conserving pseudopotentials
  Number of pseudopotentials ..    2
  Number of types of atoms   ..    2
  Scalar calculation (no spin-orbit term)
  Nonlocal part applied using Legendre polynomials
  Max number of non-local projectors over l and type   2
  Highest angular momentum +1 .......   4
  Max number of (l,n)   components ..   8
  Max number of (l,m,n) components ..   8
 
 Pseudo-Core Charge Info: 
   Number of radial points for pseudo-core charge .. 2501
   XC core-correction treatment (optnlxccc) ........    1
   Radius for pseudo-core charge for each type ..... 
 
  - Atom type    1 has pseudo-core radius ..  5.9900
  - Atom type    2 has pseudo-core radius ..  5.9900
 
 Info on the Q-grid used for form factors in spline form: 
   Number of q-points for radial functions ffspl ..   3001
   Number of q-points for vlspl ...................   3001
   vloc is computed in Reciprocal Space
   model core charge treated in real-space
 
  XC functional for type 1 is 11
  Pseudo valence available: yes
  XC functional for type 2 is 11
  Pseudo valence available: yes
 
 wfconv:    50 bands initialized randomly with npw=  2629, for ikpt=     1
 wfconv:    50 bands initialized randomly with npw=  5265, for ikpt=     2
 wfconv:    50 bands initialized randomly with npw=  5254, for ikpt=     3
 wfconv:    50 bands initialized randomly with npw=  2647, for ikpt=     4
_setup2: Arith. and geom. avg. npw (full set) are    5268.875    5268.869
 initro: for itypat=  1, take pseudo charge density from pp file
 initro: for itypat=  2, take pseudo charge density from pp file
 
================================================================================
 
 getcut: wavevector=  0.0000  0.0000  0.0000  ngfft=  45  45  45
         ecut(hartree)=     25.000   => boxcut(ratio)=   2.03814
 
 1/G**2 cut-off applied in the following step : cutoff-mode = CRYSTAL
 
 1/G**2 cut-off applied in the following step : cutoff-mode = CRYSTAL
 
 1/G**2 cut-off applied in the following step : cutoff-mode = CRYSTAL
 
 ITER STEP NUMBER     1
 Max number of non-self-consistent loops: 2
 Total charge density [el/Bohr^3]
      Maximum=    1.0622E+00  at reduced coord.    0.3111    0.2889    0.2000
      Minimum=    4.7866E-03  at reduced coord.    0.4444    0.4667    0.4889
   Integrated=    9.6000E+01
 
 1/G**2 cut-off applied in the following step : cutoff-mode = CRYSTAL
 ETOT  1  -357.55467459346    -3.576E+02 3.364E-01 1.326E+03
 scprqt: <Vxc>= -4.3380957E-01 hartree
 
 Simple mixing update:
  residual square of the potential:    638.873443618996
{SCF_istep: 1 , Vnl|psi>: 2000 , wall_time: '  9.90 [s] '} <<< TIME
 
 ITER STEP NUMBER     2
 Max number of non-self-consistent loops: 2
 Total charge density [el/Bohr^3]
      Maximum=    7.8223E-01  at reduced coord.    0.1778    0.2889    0.7111
      Minimum=    8.0411E-03  at reduced coord.    0.4444    0.4667    0.4889
   Integrated=    9.6000E+01
 ETOT  2  -357.45795722598     9.672E-02 2.567E-02 1.636E+03
 scprqt: <Vxc>= -4.6078489E-01 hartree
 
 Pulay update with  1 previous iterations:
 mixing of old trial potential: alpha(m:m-4)=  0.472      0.528
{SCF_istep: 2 , Vnl|psi>: 2000 , wall_time: '  9.74 [s] '} <<< TIME
 
 ITER STEP NUMBER     3
 Total charge density [el/Bohr^3]
      Maximum=    9.5098E-01  at reduced coord.    0.3111    0.2889    0.2000
      Minimum=    5.8243E-03  at reduced coord.    0.4444    0.4667    0.4889
   Integrated=    9.6000E+01
 ETOT  3  -358.58824109795    -1.130E+00 6.707E-03 4.591E+01
 scprqt: <Vxc>= -4.4431269E-01 hartree
 
 Pulay update with  2 previous iterations:
 mixing of old trial potential: alpha(m:m-4)=  0.905      0.117     -0.221E-01
{SCF_istep: 3 , Vnl|psi>: 998 , wall_time: '  4.96 [s] '} <<< TIME
 
 ITER STEP NUMBER     4
 Total charge density [el/Bohr^3]
      Maximum=    9.3991E-01  at reduced coord.    0.1778    0.2889    0.7111
      Minimum=    6.0734E-03  at reduced coord.    0.4444    0.9556    0.0222
   Integrated=    9.6000E+01
 ETOT  4  -358.61202480995    -2.378E-02 9.918E-03 2.227E+00
 scprqt: <Vxc>= -4.4611831E-01 hartree
 
 Pulay update with  3 previous iterations:
 mixing of old trial potential: alpha(m:m-4)=  0.784      0.217      0.286E-01 -0.291E-01
{SCF_istep: 4 , Vnl|psi>: 1000 , wall_time: '  4.96 [s] '} <<< TIME
 
 ITER STEP NUMBER     5
 Total charge density [el/Bohr^3]
      Maximum=    9.3150E-01  at reduced coord.    0.1778    0.2889    0.7111
      Minimum=    6.1000E-03  at reduced coord.    0.4444    0.4667    0.4889
   Integrated=    9.6000E+01
 ETOT  5  -358.61295227972    -9.275E-04 2.695E-03 9.784E-01
 scprqt: <Vxc>= -4.4633547E-01 hartree
 
 Pulay update with  4 previous iterations:
 mixing of old trial potential: alpha(m:m-4)=  0.725      0.412     -0.152      0.322E-02  0.125E-01
{SCF_istep: 5 , Vnl|psi>: 1000 , wall_time: '  4.95 [s] '} <<< TIME
 
 ITER STEP NUMBER     6
 Total charge density [el/Bohr^3]
      Maximum=    9.3345E-01  at reduced coord.    0.1778    0.2889    0.7111
      Minimum=    6.1046E-03  at reduced coord.    0.4444    0.4667    0.4889
   Integrated=    9.6000E+01
 ETOT  6  -358.61324889189    -2.966E-04 4.819E-03 4.999E-03
 scprqt: <Vxc>= -4.4640447E-01 hartree
 
 Pulay update with  5 previous iterations:
 mixing of old trial potential: alpha(m:m-4)=   1.07     -0.616E-01 -0.116E-01  0.847E-02 -0.253E-03
{SCF_istep: 6 , Vnl|psi>: 1000 , wall_time: '  5.05 [s] '} <<< TIME
 
 ITER STEP NUMBER     7
 Total charge density [el/Bohr^3]
      Maximum=    9.3327E-01  at reduced coord.    0.1778    0.2889    0.7111
      Minimum=    6.1059E-03  at reduced coord.    0.4444    0.4667    0.4889
   Integrated=    9.6000E+01
 ETOT  7  -358.61325029900    -1.407E-06 8.661E-04 8.788E-04
 scprqt: <Vxc>= -4.4642158E-01 hartree
 
 Pulay update with  6 previous iterations:
 mixing of old trial potential: alpha(m:m-4)=   1.00      0.358E-01 -0.358E-01 -0.757E-02  0.531E-02
{SCF_istep: 7 , Vnl|psi>: 1000 , wall_time: '  5.05 [s] '} <<< TIME
 
 ITER STEP NUMBER     8
 Total charge density [el/Bohr^3]
      Maximum=    9.3334E-01  at reduced coord.    0.1778    0.2889    0.7111
      Minimum=    6.1060E-03  at reduced coord.    0.4444    0.4667    0.4889
   Integrated=    9.6000E+01
 ETOT  8  -358.61325055004    -2.510E-07 1.672E-03 2.024E-04
 scprqt: <Vxc>= -4.4641646E-01 hartree
 
 Pulay update with  7 previous iterations:
 mixing of old trial potential: alpha(m:m-4)=  0.509      0.573     -0.655E-01 -0.149E-01 -0.339E-02
{SCF_istep: 8 , Vnl|psi>: 1000 , wall_time: '  5.06 [s] '} <<< TIME
 
 ITER STEP NUMBER     9
 Total charge density [el/Bohr^3]
      Maximum=    9.3337E-01  at reduced coord.    0.1778    0.2889    0.7111
      Minimum=    6.1055E-03  at reduced coord.    0.4444    0.4667    0.4889
   Integrated=    9.6000E+01
 ETOT  9  -358.61325063737    -8.733E-08 7.455E-04 4.474E-06
 scprqt: <Vxc>= -4.4641566E-01 hartree
 
 Pulay update with  7 previous iterations:
 mixing of old trial potential: alpha(m:m-4)=  0.923      0.844E-01  0.388E-02 -0.113E-01  0.942E-03
{SCF_istep: 9 , Vnl|psi>: 1000 , wall_time: '  5.05 [s] '} <<< TIME
 
 ITER STEP NUMBER    10
 Total charge density [el/Bohr^3]
      Maximum=    9.3337E-01  at reduced coord.    0.1778    0.2889    0.7111
      Minimum=    6.1056E-03  at reduced coord.    0.4444    0.4667    0.4889
   Integrated=    9.6000E+01
 ETOT 10  -358.61325063945    -2.079E-09 1.109E-03 2.405E-07
 scprqt: <Vxc>= -4.4641539E-01 hartree
 
 Pulay update with  7 previous iterations:
 mixing of old trial potential: alpha(m:m-4)=  0.953      0.766E-01 -0.103E-01 -0.208E-01  0.118E-02
{SCF_istep: 10 , Vnl|psi>: 1000 , wall_time: '  5.05 [s] '} <<< TIME
 
 ITER STEP NUMBER    11
 Total charge density [el/Bohr^3]
      Maximum=    9.3337E-01  at reduced coord.    0.1778    0.2889    0.7111
      Minimum=    6.1056E-03  at reduced coord.    0.4444    0.4667    0.4889
   Integrated=    9.6000E+01
 ETOT 11  -358.61325063945     3.979E-13 8.182E-04 1.759E-07
 scprqt: <Vxc>= -4.4641537E-01 hartree
 
 Pulay update with  7 previous iterations:
 mixing of old trial potential: alpha(m:m-4)=  0.576      0.490     -0.553E-01 -0.538E-02 -0.511E-02
{SCF_istep: 11 , Vnl|psi>: 1000 , wall_time: '  5.05 [s] '} <<< TIME
 
 ITER STEP NUMBER    12
 Total charge density [el/Bohr^3]
      Maximum=    9.3337E-01  at reduced coord.    0.1778    0.2889    0.7111
      Minimum=    6.1056E-03  at reduced coord.    0.4444    0.4667    0.4889
   Integrated=    9.6000E+01
 ETOT 12  -358.61325063952    -6.781E-11 8.469E-04 1.594E-08
 scprqt: <Vxc>= -4.4641537E-01 hartree
 
 Pulay update with  7 previous iterations:
 mixing of old trial potential: alpha(m:m-4)=  0.912      0.153     -0.447E-01 -0.223E-01  0.197E-02
{SCF_istep: 12 , Vnl|psi>: 1000 , wall_time: '  5.04 [s] '} <<< TIME
 
 ITER STEP NUMBER    13
 Total charge density [el/Bohr^3]
      Maximum=    9.3337E-01  at reduced coord.    0.1778    0.2889    0.7111
      Minimum=    6.1056E-03  at reduced coord.    0.4444    0.4667    0.4889
   Integrated=    9.6000E+01
 ETOT 13  -358.61325063952    -4.093E-12 5.086E-04 7.828E-10
 scprqt: <Vxc>= -4.4641537E-01 hartree
 
 Pulay update with  7 previous iterations:
 mixing of old trial potential: alpha(m:m-4)=  0.854      0.169      0.376E-02 -0.301E-01  0.282E-02
{SCF_istep: 13 , Vnl|psi>: 1000 , wall_time: '  5.04 [s] '} <<< TIME
 
 ITER STEP NUMBER    14
 Total charge density [el/Bohr^3]
      Maximum=    9.3337E-01  at reduced coord.    0.1778    0.2889    0.7111
      Minimum=    6.1056E-03  at reduced coord.    0.4444    0.4667    0.4889
   Integrated=    9.6000E+01
 ETOT 14  -358.61325063952     8.527E-13 4.140E-04 6.724E-10
 scprqt: <Vxc>= -4.4641538E-01 hartree
 
 Pulay update with  7 previous iterations:
 mixing of old trial potential: alpha(m:m-4)=  0.529      0.472      0.898E-02 -0.160E-02 -0.799E-02
{SCF_istep: 14 , Vnl|psi>: 1000 , wall_time: '  5.05 [s] '} <<< TIME
 
 ITER STEP NUMBER    15
 Total charge density [el/Bohr^3]
      Maximum=    9.3337E-01  at reduced coord.    0.1778    0.2889    0.7111
      Minimum=    6.1056E-03  at reduced coord.    0.4444    0.4667    0.4889
   Integrated=    9.6000E+01
 ETOT 15  -358.61325063952    -1.194E-12 2.231E-04 1.937E-11
 scprqt: <Vxc>= -4.4641538E-01 hartree
 
 Pulay update with  7 previous iterations:
 mixing of old trial potential: alpha(m:m-4)=   1.26     -0.104     -0.169     -0.795E-03  0.544E-02
{SCF_istep: 15 , Vnl|psi>: 1000 , wall_time: '  5.04 [s] '} <<< TIME
 
 ITER STEP NUMBER    16
 Total charge density [el/Bohr^3]
      Maximum=    9.3337E-01  at reduced coord.    0.1778    0.2889    0.7111
      Minimum=    6.1056E-03  at reduced coord.    0.4444    0.4667    0.4889
   Integrated=    9.6000E+01
 ETOT 16  -358.61325063952     1.705E-13 2.261E-04 2.579E-12
 scprqt: <Vxc>= -4.4641538E-01 hartree
 
 Pulay update with  7 previous iterations:
 mixing of old trial potential: alpha(m:m-4)=  0.707      0.408     -0.463E-01 -0.703E-01 -0.232E-02
{SCF_istep: 16 , Vnl|psi>: 1000 , wall_time: '  5.04 [s] '} <<< TIME
 
 ITER STEP NUMBER    17
 Total charge density [el/Bohr^3]
      Maximum=    9.3337E-01  at reduced coord.    0.1778    0.2889    0.7111
      Minimum=    6.1056E-03  at reduced coord.    0.4444    0.4667    0.4889
   Integrated=    9.6000E+01
 ETOT 17  -358.61325063952     1.080E-12 1.496E-04 1.018E-12
 scprqt: <Vxc>= -4.4641538E-01 hartree
 
 Pulay update with  7 previous iterations:
 mixing of old trial potential: alpha(m:m-4)=  0.483      0.416      0.157     -0.197E-01 -0.341E-01
{SCF_istep: 17 , Vnl|psi>: 1000 , wall_time: '  5.05 [s] '} <<< TIME
 
 ITER STEP NUMBER    18
 Total charge density [el/Bohr^3]
      Maximum=    9.3337E-01  at reduced coord.    0.1778    0.2889    0.7111
      Minimum=    6.1056E-03  at reduced coord.    0.4444    0.4667    0.4889
   Integrated=    9.6000E+01
 ETOT 18  -358.61325063952    -2.274E-12 1.632E-04 1.092E-13
 scprqt: <Vxc>= -4.4641538E-01 hartree
 
 Pulay update with  7 previous iterations:
 mixing of old trial potential: alpha(m:m-4)=  0.683      0.165      0.135      0.178E-01  0.383E-02
{SCF_istep: 18 , Vnl|psi>: 1000 , wall_time: '  5.06 [s] '} <<< TIME
 
 ITER STEP NUMBER    19
 Total charge density [el/Bohr^3]
      Maximum=    9.3337E-01  at reduced coord.    0.1778    0.2889    0.7111
      Minimum=    6.1056E-03  at reduced coord.    0.4444    0.4667    0.4889
   Integrated=    9.6000E+01
 ETOT 19  -358.61325063952     2.217E-12 1.247E-04 2.559E-14
 scprqt: <Vxc>= -4.4641538E-01 hartree
 
 Pulay update with  7 previous iterations:
 mixing of old trial potential: alpha(m:m-4)=  0.798      0.294     -0.412E-01 -0.378E-01 -0.196E-01
{SCF_istep: 19 , Vnl|psi>: 1000 , wall_time: '  5.04 [s] '} <<< TIME
 
 ITER STEP NUMBER    20
 Total charge density [el/Bohr^3]
      Maximum=    9.3337E-01  at reduced coord.    0.1778    0.2889    0.7111
      Minimum=    6.1056E-03  at reduced coord.    0.4444    0.4667    0.4889
   Integrated=    9.6000E+01
 ETOT 20  -358.61325063952    -9.663E-13 1.797E-04 1.359E-15
 scprqt: <Vxc>= -4.4641538E-01 hartree
 
 Pulay update with  7 previous iterations:
 mixing of old trial potential: alpha(m:m-4)=  0.720      0.248      0.706E-01 -0.155E-01 -0.179E-01
{SCF_istep: 20 , Vnl|psi>: 1000 , wall_time: '  5.05 [s] '} <<< TIME
 
 ITER STEP NUMBER    21
 Total charge density [el/Bohr^3]
      Maximum=    9.3337E-01  at reduced coord.    0.1778    0.2889    0.7111
      Minimum=    6.1056E-03  at reduced coord.    0.4444    0.4667    0.4889
   Integrated=    9.6000E+01
 ETOT 21  -358.61325063952    -7.958E-13 1.081E-04 3.808E-16
 scprqt: <Vxc>= -4.4641538E-01 hartree
 
 Pulay update with  7 previous iterations:
 mixing of old trial potential: alpha(m:m-4)=  0.627      0.380      0.148E-01 -0.123E-01 -0.320E-02
{SCF_istep: 21 , Vnl|psi>: 1000 , wall_time: '  5.05 [s] '} <<< TIME
 
 ITER STEP NUMBER    22
 Total charge density [el/Bohr^3]
      Maximum=    9.3337E-01  at reduced coord.    0.1778    0.2889    0.7111
      Minimum=    6.1056E-03  at reduced coord.    0.4444    0.4667    0.4889
   Integrated=    9.6000E+01
 ETOT 22  -358.61325063952     9.095E-13 1.862E-04 7.320E-17
 scprqt: <Vxc>= -4.4641538E-01 hartree
 
 Pulay update with  7 previous iterations:
 mixing of old trial potential: alpha(m:m-4)=  0.652      0.273      0.940E-01 -0.161E-01 -0.539E-02
{SCF_istep: 22 , Vnl|psi>: 1000 , wall_time: '  5.05 [s] '} <<< TIME
 
 ITER STEP NUMBER    23
 Total charge density [el/Bohr^3]
      Maximum=    9.3337E-01  at reduced coord.    0.1778    0.2889    0.7111
      Minimum=    6.1056E-03  at reduced coord.    0.4444    0.4667    0.4889
   Integrated=    9.6000E+01
 ETOT 23  -358.61325063952    -5.684E-14 8.898E-05 2.296E-17
 scprqt: <Vxc>= -4.4641538E-01 hartree
 
 Pulay update with  7 previous iterations:
 mixing of old trial potential: alpha(m:m-4)=  0.772      0.302      0.629E-02 -0.601E-01 -0.202E-01
{SCF_istep: 23 , Vnl|psi>: 1000 , wall_time: '  5.05 [s] '} <<< TIME
 
 ITER STEP NUMBER    24
 Total charge density [el/Bohr^3]
      Maximum=    9.3337E-01  at reduced coord.    0.1778    0.2889    0.7111
      Minimum=    6.1056E-03  at reduced coord.    0.4444    0.4667    0.4889
   Integrated=    9.6000E+01
 ETOT 24  -358.61325063952    -7.390E-13 1.773E-04 9.127E-19
 scprqt: <Vxc>= -4.4641538E-01 hartree
 
 At SCF step   24       vres2   =  9.13E-19 < tolvrs=  1.00E-18 =>converged.
 
 -------------------------------------------------------------------------------------------------
 Ekinetic   = :     1.464236E+02 Ha ,    3.984389E+03 eV
 Evext_l    = :    -2.062365E+02 Ha ,   -5.611980E+03 eV
 Evext_nl   = :    -9.123714E+00 Ha ,   -2.482689E+02 eV
 Epsp_core  = :     1.495951E+01 Ha ,    4.070690E+02 eV
 Ehartree   = :     5.608491E+01 Ha ,    1.526148E+03 eV
 Exc_ks     = :    -9.094970E+01 Ha ,   -2.474867E+03 eV
 Enn        = :    -2.697714E+02 Ha ,   -7.340852E+03 eV
 -------------------------------------------------------------------------------------------------
 Etot       = :    -3.586133E+02 Ha ,   -9.758363E+03 eV
 -------------------------------------------------------------------------------------------------
 
 Cartesian components of stress tensor (hartree/bohr^3)
  sigma(1 1)= -2.93707453E-04  sigma(3 2)=  3.80368319E-07
  sigma(2 2)= -3.47165821E-04  sigma(3 1)= -1.56219375E-06
  sigma(3 3)= -5.73670714E-04  sigma(2 1)=  1.33204315E-05
 
 
 fftdatar_write: About to write data to: o_DEN with iomode: IO_MODE_ETSF
- Creating HDf5 file with MPI-IO support: o_DEN.nc
- Opening HDf5 file with MPI-IO support: o_DEN.nc
 IO operation completed. cpu:  0.05 [s] , wall:  0.19 [s] <<< TIME
- Creating HDf5 file with MPI-IO support: o_GSR.nc
 Integrated electronic density in atomic spheres:
 ------------------------------------------------
 Atom  Sphere_radius  Integrated_density
    1        2.00000          8.35612238
    2        2.00000          8.34713784
    3        2.00000          8.35007041
    4        2.00000          8.34839061
    5        2.00000          6.41133543
    6        2.00000          6.41965848
    7        2.00000          6.43368466
    8        2.00000          6.42323097
    9        2.00000          6.33671942
   10        2.00000          6.33929064
   11        2.00000          6.33718716
   12        2.00000          6.34046993
================================================================================
 
 ----iterations are completed or convergence reached----
 
 
 === Gap info ===
  >>>> For spin  1
   Minimum direct gap =   4.5986 [eV], located at k-point      :   0.5000  0.0000  0.0000
   Fundamental gap    =   4.4239 [eV], Top of valence bands at :   0.0000  0.0000  0.0000
                                       Bottom of conduction at :   0.3333  0.3333  0.1667
 Mean square residual over all n,k,spin=   20.586E-08; max=  17.726E-05
   0.0000  0.0000  0.0000    1  6.04600E-12 kpt; spin; max resid(k); each band:
   2.07E-25  2.52E-25  3.21E-25  1.69E-25  2.73E-24  5.11E-24  5.06E-24  1.20E-24
   1.27E-24  1.58E-24  1.18E-24  1.11E-24  1.19E-24  6.53E-25  7.06E-25  8.04E-25
   8.57E-23  1.06E-22  9.97E-23  1.09E-22  3.69E-23  5.44E-23  4.56E-23  3.54E-23
   5.34E-23  4.95E-23  5.37E-23  5.61E-23  6.82E-23  5.41E-23  3.88E-23  4.13E-23
   4.54E-23  3.17E-23  6.26E-23  6.77E-23  4.19E-23  6.10E-23  7.39E-23  4.30E-23
   5.87E-23  4.79E-23  5.45E-23  5.07E-23  7.14E-23  5.78E-23  4.25E-23  3.38E-23
   2.25E-12  6.05E-12
   0.1667  0.0000  0.0000    1  1.77256E-04 kpt; spin; max resid(k); each band:
   2.03E-25  2.39E-25  3.14E-25  1.63E-25  3.03E-24  4.78E-24  4.88E-24  1.27E-24
   1.65E-24  1.20E-24  1.12E-24  1.22E-24  1.18E-24  9.74E-25  5.35E-25  9.15E-25
   8.75E-23  1.07E-22  9.97E-23  1.12E-22  4.96E-23  3.70E-23  4.50E-23  3.46E-23
   5.67E-23  5.11E-23  5.07E-23  5.77E-23  6.52E-23  6.23E-23  3.87E-23  3.28E-23
   2.78E-23  5.47E-23  5.69E-23  5.03E-23  6.64E-23  6.36E-23  5.76E-23  6.65E-23
   4.20E-23  5.43E-23  5.27E-23  7.02E-23  4.68E-23  6.28E-23  3.96E-23  3.25E-23
   5.86E-07  1.77E-04
   0.3333  0.0000  0.0000    1  2.57627E-06 kpt; spin; max resid(k); each band:
   1.97E-25  1.99E-25  2.89E-25  1.54E-25  3.33E-24  4.61E-24  4.34E-24  2.00E-24
   1.25E-24  1.27E-24  1.34E-24  1.14E-24  7.89E-25  1.44E-24  6.23E-25  1.01E-24
   9.40E-23  1.09E-22  1.02E-22  1.13E-22  4.61E-23  3.67E-23  3.70E-23  3.49E-23
   5.35E-23  5.89E-23  5.55E-23  6.62E-23  5.92E-23  5.56E-23  3.19E-23  2.40E-23
   4.42E-23  5.88E-23  4.76E-23  3.49E-23  6.52E-23  7.13E-23  5.69E-23  4.61E-23
   6.56E-23  5.24E-23  4.56E-23  7.35E-23  5.68E-23  7.68E-23  4.00E-23  2.23E-23
   1.46E-08  2.58E-06
   0.5000  0.0000  0.0000    1  1.01904E-06 kpt; spin; max resid(k); each band:
   1.94E-25  1.71E-25  2.71E-25  1.47E-25  3.90E-24  4.20E-24  4.38E-24  2.09E-24
   1.29E-24  1.27E-24  1.33E-24  9.82E-25  6.59E-25  1.44E-24  7.19E-25  1.02E-24
   1.02E-22  1.02E-22  9.76E-23  1.18E-22  4.62E-23  3.95E-23  3.04E-23  3.58E-23
   5.11E-23  6.56E-23  6.29E-23  6.93E-23  4.93E-23  5.93E-23  2.70E-23  2.09E-23
   3.90E-23  5.82E-23  6.30E-23  3.60E-23  4.92E-23  3.71E-23  8.03E-23  6.45E-23
   5.42E-23  6.45E-23  5.23E-23  5.81E-23  6.00E-23  7.81E-23  3.36E-23  2.43E-23
   7.17E-08  1.02E-06
   0.0000  0.1667  0.0000    1  5.99537E-09 kpt; spin; max resid(k); each band:
   2.02E-25  2.41E-25  3.22E-25  1.72E-25  2.62E-24  5.14E-24  4.80E-24  1.41E-24
   1.19E-24  1.41E-24  1.46E-24  1.06E-24  1.30E-24  8.08E-25  7.54E-25  8.77E-25
   8.64E-23  1.03E-22  1.06E-22  1.10E-22  3.46E-23  5.45E-23  4.26E-23  3.43E-23
   4.50E-23  5.52E-23  5.33E-23  5.88E-23  6.77E-23  5.53E-23  3.45E-23  5.33E-23
   4.92E-23  4.40E-23  4.44E-23  5.85E-23  3.85E-23  6.57E-23  7.61E-23  7.16E-23
   4.62E-23  3.95E-23  5.27E-23  4.86E-23  7.51E-23  5.67E-23  4.50E-23  2.87E-23
   8.85E-13  6.00E-09
   0.1667  0.1667  0.0000    1  1.12042E-06 kpt; spin; max resid(k); each band:
   2.01E-25  2.29E-25  3.13E-25  1.68E-25  2.75E-24  4.87E-24  4.78E-24  1.68E-24
   1.32E-24  1.26E-24  1.11E-24  1.21E-24  1.29E-24  1.04E-24  7.83E-25  8.36E-25
   8.83E-23  9.31E-23  1.02E-22  1.26E-22  2.40E-23  5.99E-23  3.95E-23  3.33E-23
   5.01E-23  5.68E-23  4.93E-23  6.07E-23  6.47E-23  5.85E-23  3.50E-23  4.22E-23
   5.49E-23  3.55E-23  4.85E-23  5.10E-23  5.03E-23  7.68E-23  4.88E-23  6.09E-23
   6.12E-23  6.44E-23  5.88E-23  5.81E-23  5.56E-23  4.97E-23  4.53E-23  2.45E-23
   1.12E-08  1.12E-06
   0.3333  0.1667  0.0000    1  1.36783E-07 kpt; spin; max resid(k); each band:
   1.96E-25  1.91E-25  2.88E-25  1.57E-25  3.90E-24  3.64E-24  4.59E-24  1.99E-24
   1.18E-24  1.25E-24  1.69E-24  1.04E-24  9.41E-25  1.27E-24  8.56E-25  9.16E-25
   9.51E-23  9.13E-23  1.06E-22  1.28E-22  4.54E-23  3.57E-23  3.35E-23  3.53E-23
   5.33E-23  5.64E-23  5.60E-23  5.87E-23  6.95E-23  5.18E-23  3.33E-23  3.23E-23
   4.83E-23  4.98E-23  4.73E-23  4.51E-23  5.35E-23  5.85E-23  7.07E-23  4.40E-23
   7.68E-23  4.89E-23  7.48E-23  5.46E-23  6.01E-23  5.33E-23  3.74E-23  2.44E-23
   3.04E-08  1.37E-07
   0.5000  0.1667  0.0000    1  2.97371E-06 kpt; spin; max resid(k); each band:
   1.91E-25  1.64E-25  2.69E-25  1.49E-25  3.96E-24  3.80E-24  4.52E-24  2.09E-24
   1.36E-24  1.40E-24  1.26E-24  1.06E-24  1.00E-24  1.11E-24  7.24E-25  1.07E-24
   1.02E-22  1.05E-22  1.05E-22  1.10E-22  4.17E-23  3.88E-23  2.93E-23  3.79E-23
   5.22E-23  6.08E-23  6.29E-23  6.97E-23  4.86E-23  5.84E-23  3.00E-23  2.89E-23
   4.11E-23  5.46E-23  6.01E-23  3.64E-23  4.84E-23  4.87E-23  7.88E-23  5.03E-23
   6.33E-23  4.53E-23  6.21E-23  6.79E-23  6.01E-23  5.42E-23  3.04E-23  2.76E-23
   1.97E-06  2.97E-06
  -0.3333  0.1667  0.0000    1  1.62069E-06 kpt; spin; max resid(k); each band:
   1.95E-25  1.87E-25  2.87E-25  1.57E-25  3.57E-24  4.15E-24  4.26E-24  2.06E-24
   1.16E-24  1.28E-24  1.69E-24  1.20E-24  9.00E-25  1.29E-24  8.61E-25  7.78E-25
   9.45E-23  1.16E-22  1.12E-22  9.39E-23  4.17E-23  3.68E-23  3.64E-23  3.74E-23
   5.16E-23  5.89E-23  5.88E-23  5.43E-23  6.06E-23  6.43E-23  3.45E-23  2.67E-23
   4.37E-23  5.32E-23  5.71E-23  3.78E-23  5.83E-23  6.25E-23  5.93E-23  5.01E-23
   6.98E-23  4.66E-23  5.85E-23  6.81E-23  6.62E-23  5.46E-23  3.78E-23  2.40E-23
   6.83E-07  1.62E-06
  -0.1667  0.1667  0.0000    1  2.96864E-06 kpt; spin; max resid(k); each band:
   2.00E-25  2.26E-25  3.12E-25  1.67E-25  2.65E-24  5.05E-24  4.57E-24  1.78E-24
   1.21E-24  1.30E-24  1.18E-24  1.34E-24  1.14E-24  1.17E-24  7.49E-25  7.28E-25
   8.81E-23  1.12E-22  1.14E-22  9.63E-23  2.50E-23  5.52E-23  4.54E-23  3.50E-23
   5.36E-23  5.14E-23  5.08E-23  5.80E-23  6.07E-23  6.83E-23  3.66E-23  3.49E-23
   5.77E-23  3.83E-23  5.31E-23  4.80E-23  6.02E-23  5.53E-23  4.89E-23  7.52E-23
   4.66E-23  5.38E-23  4.38E-23  5.94E-23  5.52E-23  6.60E-23  4.45E-23  2.64E-23
   7.73E-09  2.97E-06
   0.0000  0.3333  0.0000    1  9.93128E-06 kpt; spin; max resid(k); each band:
   1.91E-25  1.99E-25  3.12E-25  1.81E-25  3.03E-24  4.55E-24  4.05E-24  2.11E-24
   1.46E-24  1.31E-24  1.28E-24  1.49E-24  1.24E-24  8.91E-25  9.36E-25  9.20E-25
   8.88E-23  1.01E-22  1.11E-22  1.13E-22  3.61E-23  5.22E-23  3.51E-23  3.38E-23
   5.12E-23  4.82E-23  6.31E-23  5.24E-23  5.31E-23  6.77E-23  3.13E-23  5.17E-23
   5.71E-23  4.37E-23  5.19E-23  4.92E-23  5.25E-23  7.28E-23  4.01E-23  5.82E-23
   5.28E-23  3.21E-23  6.88E-23  8.54E-23  4.90E-23  5.37E-23  5.10E-23  1.39E-23
   1.26E-09  9.93E-06
   0.1667  0.3333  0.0000    1  3.80503E-08 kpt; spin; max resid(k); each band:
   1.90E-25  1.86E-25  3.01E-25  1.76E-25  2.85E-24  4.79E-24  3.94E-24  2.18E-24
   1.57E-24  1.46E-24  1.36E-24  1.11E-24  8.74E-25  1.36E-24  9.16E-25  8.93E-25
   9.13E-23  9.50E-23  1.13E-22  1.21E-22  2.95E-23  5.17E-23  2.99E-23  3.64E-23
   5.08E-23  5.10E-23  5.85E-23  5.71E-23  6.06E-23  5.27E-23  3.76E-23  4.71E-23
   5.51E-23  4.79E-23  4.28E-23  4.97E-23  7.55E-23  5.50E-23  4.22E-23  3.63E-23
   5.95E-23  7.62E-23  7.52E-23  5.25E-23  5.60E-23  4.41E-23  4.11E-23  2.48E-23
   2.02E-10  3.81E-08
   0.3333  0.3333  0.0000    1  2.57556E-06 kpt; spin; max resid(k); each band:
   1.88E-25  1.59E-25  2.77E-25  1.63E-25  3.67E-24  4.19E-24  3.64E-24  2.14E-24
   1.64E-24  1.81E-24  1.35E-24  1.04E-24  9.87E-25  1.07E-24  1.00E-24  8.76E-25
   9.79E-23  9.64E-23  1.14E-22  1.18E-22  4.06E-23  3.37E-23  2.56E-23  4.12E-23
   5.33E-23  5.45E-23  6.00E-23  4.79E-23  6.27E-23  4.46E-23  4.56E-23  5.88E-23
   4.56E-23  4.07E-23  6.37E-23  4.11E-23  6.81E-23  5.03E-23  4.47E-23  3.79E-23
   5.85E-23  6.36E-23  9.08E-23  6.50E-23  3.95E-23  5.22E-23  3.00E-23  3.04E-23
   1.01E-08  2.58E-06
   0.5000  0.3333  0.0000    1  3.32716E-06 kpt; spin; max resid(k); each band:
   1.87E-25  1.45E-25  2.60E-25  1.52E-25  3.86E-24  4.18E-24  3.57E-24  2.22E-24
   1.69E-24  1.27E-24  1.70E-24  1.22E-24  9.14E-25  9.51E-25  9.73E-25  9.12E-25
   1.03E-22  1.04E-22  1.09E-22  1.05E-22  3.20E-23  3.64E-23  2.50E-23  4.33E-23
   5.37E-23  5.23E-23  6.13E-23  5.20E-23  4.80E-23  5.90E-23  4.44E-23  5.37E-23
   4.56E-23  4.63E-23  5.83E-23  4.35E-23  5.86E-23  5.24E-23  4.65E-23  4.94E-23
   4.72E-23  5.36E-23  8.25E-23  8.47E-23  5.34E-23  4.02E-23  2.56E-23  3.02E-23
   3.33E-06  6.38E-07
  -0.3333  0.3333  0.0000    1  8.76400E-07 kpt; spin; max resid(k); each band:
   1.88E-25  1.56E-25  2.75E-25  1.62E-25  3.52E-24  4.21E-24  3.74E-24  2.11E-24
   1.82E-24  1.62E-24  1.26E-24  1.28E-24  1.07E-24  1.07E-24  9.62E-25  7.46E-25
   9.63E-23  1.10E-22  1.11E-22  1.03E-22  3.37E-23  3.87E-23  3.00E-23  4.18E-23
   5.13E-23  5.55E-23  5.44E-23  5.39E-23  5.54E-23  4.17E-23  6.84E-23  4.55E-23
   5.30E-23  4.40E-23  4.91E-23  5.27E-23  6.41E-23  4.09E-23  5.41E-23  4.31E-23
   4.92E-23  6.53E-23  7.59E-23  8.22E-23  4.59E-23  4.71E-23  2.94E-23  2.97E-23
   1.10E-08  8.76E-07
  -0.1667  0.3333  0.0000    1  5.93066E-08 kpt; spin; max resid(k); each band:
   1.91E-25  1.83E-25  3.00E-25  1.75E-25  2.91E-24  4.71E-24  3.86E-24  2.16E-24
   1.54E-24  1.79E-24  1.12E-24  1.06E-24  1.16E-24  1.32E-24  8.42E-25  8.22E-25
   9.03E-23  1.08E-22  1.12E-22  1.06E-22  3.45E-23  4.51E-23  3.75E-23  3.64E-23
   5.16E-23  4.79E-23  6.25E-23  4.93E-23  5.30E-23  7.43E-23  3.42E-23  5.50E-23
   5.52E-23  4.15E-23  4.98E-23  4.79E-23  5.86E-23  5.42E-23  5.40E-23  4.44E-23
   5.28E-23  5.62E-23  6.94E-23  6.53E-23  6.10E-23  4.15E-23  4.31E-23  2.16E-23
   3.85E-11  5.93E-08
   0.0000  0.5000  0.0000    1  2.35601E-09 kpt; spin; max resid(k); each band:
   1.85E-25  1.30E-25  2.84E-25  1.86E-25  2.94E-24  4.51E-24  2.67E-24  3.53E-24
   1.57E-24  1.49E-24  1.44E-24  1.40E-24  5.90E-25  1.20E-24  9.27E-25  1.18E-24
   4.01E-23  5.09E-23  1.14E-22  1.13E-22  3.02E-23  6.08E-23  7.80E-24  5.39E-23
   2.38E-23  3.28E-23  3.50E-23  5.18E-23  4.59E-23  5.41E-23  4.55E-23  3.51E-23
   4.46E-23  5.39E-23  4.76E-23  4.55E-23  5.01E-23  2.89E-23  1.70E-23  5.72E-23
   4.68E-23  2.26E-23  8.05E-23  7.89E-23  5.71E-23  3.35E-23  4.92E-23  1.08E-23
   5.12E-12  2.36E-09
   0.1667  0.5000  0.0000    1  5.80589E-11 kpt; spin; max resid(k); each band:
   1.84E-25  1.29E-25  2.78E-25  1.79E-25  2.66E-24  4.93E-24  2.55E-24  3.44E-24
   1.70E-24  1.67E-24  1.22E-24  1.21E-24  7.86E-25  1.31E-24  8.74E-25  1.05E-24
   5.02E-23  5.65E-23  1.13E-22  1.10E-22  1.58E-23  6.16E-23  1.06E-23  5.42E-23
   2.54E-23  3.23E-23  2.95E-23  5.34E-23  4.24E-23  5.63E-23  4.20E-23  5.73E-23
   5.95E-23  4.80E-23  5.68E-23  6.46E-23  5.43E-23  3.22E-23  3.69E-23  5.33E-23
   3.21E-23  5.81E-23  7.87E-23  8.13E-23  5.81E-23  4.18E-23  4.31E-23  2.02E-23
   5.56E-13  5.81E-11
   0.3333  0.5000  0.0000    1  5.58592E-09 kpt; spin; max resid(k); each band:
   1.84E-25  1.29E-25  2.63E-25  1.64E-25  2.87E-24  5.08E-24  2.28E-24  2.69E-24
   2.24E-24  2.02E-24  9.29E-25  1.45E-24  1.05E-24  9.52E-25  9.53E-25  8.80E-25
   6.82E-23  6.59E-23  1.07E-22  1.02E-22  1.25E-23  5.42E-23  1.08E-23  5.59E-23
   2.71E-23  2.99E-23  4.57E-23  4.49E-23  6.55E-23  4.07E-23  4.71E-23  5.05E-23
   7.32E-23  6.12E-23  4.80E-23  6.11E-23  4.78E-23  3.33E-23  4.63E-23  5.05E-23
   4.37E-23  6.22E-23  7.80E-23  6.78E-23  6.16E-23  2.74E-23  1.54E-23  4.07E-23
   3.07E-09  5.59E-09
   0.5000  0.5000  0.0000    1  2.53507E-05 kpt; spin; max resid(k); each band:
   1.86E-25  1.29E-25  2.58E-25  1.57E-25  2.97E-24  5.21E-24  2.14E-24  2.20E-24
   2.45E-24  2.32E-24  9.18E-25  1.53E-24  7.63E-25  1.07E-24  8.40E-25  9.66E-25
   7.71E-23  7.03E-23  1.02E-22  9.60E-23  1.61E-23  4.61E-23  1.01E-23  5.67E-23
   2.54E-23  2.59E-23  4.84E-23  4.38E-23  4.63E-23  4.56E-23  2.61E-23  4.39E-23
   7.24E-23  6.72E-23  6.33E-23  5.51E-23  3.55E-23  3.94E-23  5.16E-23  4.39E-23
   5.13E-23  5.01E-23  9.08E-23  9.06E-23  4.75E-23  2.45E-23  9.30E-24  4.34E-23
   6.06E-06  2.54E-05
   0.0000  0.0000  0.1667    1  5.60065E-09 kpt; spin; max resid(k); each band:
   2.02E-25  2.55E-25  3.19E-25  1.62E-25  2.96E-24  4.79E-24  4.82E-24  1.30E-24
   1.53E-24  1.56E-24  1.09E-24  1.14E-24  1.14E-24  9.12E-25  8.29E-25  7.34E-25
   8.67E-23  1.09E-22  1.01E-22  1.12E-22  3.45E-23  3.65E-23  5.59E-23  3.78E-23
   5.61E-23  4.78E-23  5.55E-23  6.00E-23  6.52E-23  5.44E-23  3.63E-23  5.94E-23
   4.11E-23  4.51E-23  5.23E-23  5.59E-23  3.50E-23  7.02E-23  6.70E-23  2.98E-23
   6.17E-23  7.67E-23  4.31E-23  4.49E-23  7.09E-23  5.73E-23  3.87E-23  3.62E-23
   1.20E-09  5.60E-09
   0.1667  0.0000  0.1667    1  3.98740E-05 kpt; spin; max resid(k); each band:
   2.00E-25  2.44E-25  3.11E-25  1.58E-25  4.37E-24  3.16E-24  4.89E-24  1.32E-24
   1.67E-24  1.43E-24  1.11E-24  1.15E-24  1.18E-24  1.13E-24  6.80E-25  8.64E-25
   8.88E-23  1.20E-22  8.87E-23  1.12E-22  3.97E-23  3.29E-23  4.38E-23  3.63E-23
   5.69E-23  5.17E-23  5.16E-23  6.11E-23  6.03E-23  6.44E-23  3.28E-23  4.80E-23
   4.29E-23  5.44E-23  4.04E-23  6.44E-23  5.31E-23  5.24E-23  7.04E-23  3.80E-23
   6.68E-23  5.61E-23  4.78E-23  6.18E-23  5.90E-23  5.76E-23  4.05E-23  3.40E-23
   9.94E-08  3.99E-05
   0.3333  0.0000  0.1667    1  1.05017E-05 kpt; spin; max resid(k); each band:
   1.93E-25  2.04E-25  2.89E-25  1.52E-25  4.52E-24  2.50E-24  5.02E-24  1.41E-24
   2.05E-24  1.31E-24  1.25E-24  1.01E-24  1.38E-24  1.07E-24  7.66E-25  9.42E-25
   9.55E-23  1.20E-22  8.59E-23  1.13E-22  4.15E-23  2.85E-23  3.74E-23  3.44E-23
   5.78E-23  5.67E-23  5.29E-23  6.21E-23  6.18E-23  6.17E-23  2.74E-23  4.08E-23
   4.63E-23  4.90E-23  4.40E-23  6.36E-23  5.50E-23  4.59E-23  5.30E-23  6.17E-23
   6.16E-23  5.02E-23  6.08E-23  5.09E-23  6.66E-23  6.50E-23  3.39E-23  3.17E-23
   3.62E-07  1.05E-05
   0.5000  0.0000  0.1667    1  6.98308E-07 kpt; spin; max resid(k); each band:
   1.92E-25  1.74E-25  2.71E-25  1.47E-25  3.91E-24  3.96E-24  4.31E-24  1.45E-24
   2.19E-24  1.31E-24  1.22E-24  9.52E-25  1.15E-24  1.07E-24  8.31E-25  9.93E-25
   1.02E-22  1.08E-22  9.40E-23  1.19E-22  4.05E-23  3.88E-23  3.21E-23  3.42E-23
   5.41E-23  6.24E-23  6.29E-23  6.90E-23  4.89E-23  6.00E-23  3.78E-23  2.41E-23
   4.08E-23  5.12E-23  5.83E-23  4.01E-23  5.91E-23  4.24E-23  6.99E-23  4.84E-23
   6.11E-23  7.16E-23  5.19E-23  5.07E-23  7.33E-23  6.31E-23  3.07E-23  2.96E-23
   1.74E-07  6.98E-07
  -0.3333  0.0000  0.1667    1  1.05362E-05 kpt; spin; max resid(k); each band:
   1.95E-25  2.04E-25  2.89E-25  1.51E-25  3.15E-24  4.86E-24  4.11E-24  1.48E-24
   1.89E-24  1.63E-24  1.26E-24  8.49E-25  1.09E-24  1.25E-24  8.38E-25  8.44E-25
   9.49E-23  9.89E-23  1.18E-22  1.14E-22  4.09E-23  3.65E-23  2.82E-23  3.54E-23
   5.82E-23  5.41E-23  6.06E-23  6.66E-23  6.09E-23  5.04E-23  2.75E-23  3.89E-23
   4.96E-23  5.80E-23  3.54E-23  4.79E-23  6.79E-23  5.37E-23  6.02E-23  5.79E-23
   5.52E-23  4.71E-23  6.61E-23  5.71E-23  6.73E-23  5.72E-23  3.39E-23  3.29E-23
   2.34E-06  1.05E-05
  -0.1667  0.0000  0.1667    1  8.51235E-07 kpt; spin; max resid(k); each band:
   2.00E-25  2.41E-25  3.11E-25  1.59E-25  2.87E-24  4.77E-24  4.77E-24  1.29E-24
   1.68E-24  1.60E-24  1.13E-24  1.03E-24  1.10E-24  1.18E-24  8.33E-25  7.25E-25
   8.84E-23  9.73E-23  1.14E-22  1.14E-22  4.38E-23  3.72E-23  3.60E-23  3.71E-23
   5.59E-23  5.07E-23  5.45E-23  6.13E-23  6.52E-23  5.71E-23  3.55E-23  4.08E-23
   5.36E-23  4.62E-23  3.89E-23  5.77E-23  5.96E-23  5.56E-23  7.24E-23  3.60E-23
   6.29E-23  6.15E-23  5.37E-23  6.29E-23  7.15E-23  4.60E-23  3.75E-23  3.60E-23
   4.40E-09  8.51E-07
   0.0000  0.1667  0.1667    1  3.84352E-07 kpt; spin; max resid(k); each band:
   1.99E-25  2.44E-25  3.18E-25  1.66E-25  4.64E-24  3.03E-24  4.69E-24  1.57E-24
   1.28E-24  1.18E-24  1.53E-24  1.15E-24  1.22E-24  8.92E-25  8.49E-25  8.96E-25
   8.75E-23  9.39E-23  1.07E-22  1.03E-22  4.23E-23  3.98E-23  4.83E-23  3.46E-23
   4.55E-23  5.50E-23  5.60E-23  5.71E-23  6.33E-23  5.86E-23  4.49E-23  4.62E-23
   4.49E-23  4.75E-23  4.56E-23  6.06E-23  2.79E-23  6.27E-23  5.86E-23  6.28E-23
   5.43E-23  5.00E-23  5.02E-23  6.05E-23  5.11E-23  5.19E-23  2.81E-23  4.69E-23
   2.79E-10  3.84E-07
   0.1667  0.1667  0.1667    1  9.20637E-06 kpt; spin; max resid(k); each band:
   1.96E-25  2.32E-25  3.11E-25  1.63E-25  4.63E-24  3.06E-24  4.59E-24  1.61E-24
   1.08E-24  1.52E-24  1.26E-24  1.29E-24  1.04E-24  1.18E-24  7.95E-25  9.38E-25
   8.96E-23  1.26E-22  6.58E-23  1.14E-22  5.70E-23  2.67E-23  4.61E-23  3.02E-23
   4.92E-23  5.89E-23  4.91E-23  6.17E-23  5.96E-23  6.10E-23  3.94E-23  4.17E-23
   4.19E-23  5.35E-23  4.64E-23  6.04E-23  4.15E-23  5.83E-23  5.62E-23  5.85E-23
   7.86E-23  4.98E-23  5.21E-23  5.42E-23  5.20E-23  4.14E-23  2.78E-23  4.69E-23
   2.92E-09  9.21E-06
   0.3333  0.1667  0.1667    1  9.58563E-06 kpt; spin; max resid(k); each band:
   1.92E-25  1.93E-25  2.87E-25  1.53E-25  4.60E-24  2.29E-24  5.27E-24  1.37E-24
   1.60E-24  1.70E-24  1.36E-24  1.02E-24  8.78E-25  1.27E-24  8.43E-25  1.02E-24
   9.59E-23  1.18E-22  7.14E-23  9.81E-23  5.29E-23  3.37E-23  4.50E-23  2.62E-23
   5.52E-23  5.43E-23  5.54E-23  6.14E-23  5.71E-23  5.86E-23  3.57E-23  3.94E-23
   3.93E-23  4.36E-23  5.32E-23  5.27E-23  5.76E-23  4.95E-23  5.20E-23  6.77E-23
   6.86E-23  5.24E-23  5.75E-23  6.16E-23  5.81E-23  5.07E-23  2.01E-23  4.36E-23
   5.91E-09  9.59E-06
   0.5000  0.1667  0.1667    1  7.09575E-07 kpt; spin; max resid(k); each band:
   1.90E-25  1.66E-25  2.69E-25  1.49E-25  4.54E-24  3.53E-24  4.00E-24  1.72E-24
   1.52E-24  1.79E-24  1.16E-24  9.02E-25  9.23E-25  1.29E-24  8.32E-25  1.08E-24
   1.02E-22  7.49E-23  1.03E-22  6.25E-23  5.27E-23  3.96E-23  4.45E-23  2.63E-23
   5.25E-23  5.99E-23  6.06E-23  6.66E-23  4.86E-23  6.23E-23  3.57E-23  3.26E-23
   3.93E-23  4.99E-23  5.18E-23  4.22E-23  4.49E-23  6.64E-23  4.83E-23  5.47E-23
   6.82E-23  7.45E-23  4.24E-23  5.95E-23  6.52E-23  5.34E-23  1.78E-23  4.01E-23
   1.13E-07  7.10E-07
  -0.3333  0.1667  0.1667    1  1.01964E-06 kpt; spin; max resid(k); each band:
   1.91E-25  1.87E-25  2.86E-25  1.56E-25  3.74E-24  4.75E-24  3.35E-24  2.15E-24
   1.65E-24  1.47E-24  1.16E-24  8.36E-25  1.13E-24  1.32E-24  8.32E-25  8.62E-25
   9.50E-23  6.30E-23  1.33E-22  8.31E-23  4.68E-23  3.58E-23  4.67E-23  2.99E-23
   5.19E-23  5.97E-23  5.55E-23  5.63E-23  6.15E-23  5.55E-23  3.28E-23  4.32E-23
   4.37E-23  5.65E-23  4.46E-23  3.80E-23  6.23E-23  5.56E-23  6.00E-23  4.95E-23
   7.02E-23  5.52E-23  5.35E-23  6.18E-23  6.16E-23  4.48E-23  1.98E-23  4.53E-23
   6.26E-08  1.02E-06
  -0.1667  0.1667  0.1667    1  3.77715E-05 kpt; spin; max resid(k); each band:
   1.98E-25  2.27E-25  3.09E-25  1.61E-25  4.18E-24  3.47E-24  4.53E-24  1.71E-24
   1.52E-24  1.38E-24  1.34E-24  1.05E-24  9.67E-25  1.32E-24  7.84E-25  8.00E-25
   8.91E-23  6.39E-23  1.37E-22  9.28E-23  5.41E-23  2.64E-23  4.83E-23  3.38E-23
   5.40E-23  5.55E-23  4.72E-23  5.36E-23  6.47E-23  6.33E-23  3.85E-23  4.42E-23
   5.46E-23  4.91E-23  4.05E-23  5.18E-23  4.99E-23  5.88E-23  5.46E-23  6.69E-23
   5.52E-23  5.83E-23  4.47E-23  6.11E-23  6.82E-23  3.60E-23  2.53E-23  4.95E-23
   1.35E-08  3.78E-05
   0.0000  0.3333  0.1667    1  4.25721E-07 kpt; spin; max resid(k); each band:
   1.89E-25  1.95E-25  3.04E-25  1.74E-25  4.43E-24  3.19E-24  3.92E-24  2.18E-24
   1.48E-24  1.08E-24  1.55E-24  1.41E-24  8.83E-25  1.14E-24  9.88E-25  9.49E-25
   9.01E-23  1.01E-22  9.44E-23  9.61E-23  4.65E-23  4.34E-23  4.13E-23  3.02E-23
   5.00E-23  5.13E-23  5.25E-23  6.28E-23  5.28E-23  6.43E-23  4.71E-23  5.72E-23
   4.16E-23  3.59E-23  4.32E-23  5.90E-23  5.05E-23  6.67E-23  3.30E-23  4.16E-23
   5.94E-23  6.70E-23  3.65E-23  4.16E-23  5.83E-23  3.89E-23  2.96E-23  4.51E-23
   9.24E-11  4.26E-07
   0.1667  0.3333  0.1667    1  4.24998E-06 kpt; spin; max resid(k); each band:
   1.86E-25  1.85E-25  2.94E-25  1.69E-25  4.19E-24  3.68E-24  3.83E-24  2.10E-24
   1.37E-24  1.54E-24  1.28E-24  1.13E-24  9.14E-25  1.29E-24  8.94E-25  1.01E-24
   9.25E-23  9.97E-23  8.60E-23  9.27E-23  6.22E-23  2.26E-23  4.82E-23  2.61E-23
   5.10E-23  5.15E-23  5.38E-23  6.20E-23  5.35E-23  5.13E-23  4.81E-23  5.73E-23
   3.96E-23  4.64E-23  4.51E-23  5.00E-23  5.38E-23  6.11E-23  4.42E-23  4.88E-23
   5.92E-23  6.30E-23  4.90E-23  4.07E-23  5.25E-23  3.06E-23  2.87E-23  4.57E-23
   9.55E-09  4.25E-06
   0.3333  0.3333  0.1667    1  3.04355E-05 kpt; spin; max resid(k); each band:
   1.86E-25  1.60E-25  2.74E-25  1.59E-25  4.32E-24  3.37E-24  4.11E-24  2.10E-24
   1.55E-24  1.40E-24  1.38E-24  1.04E-24  8.42E-25  1.19E-24  1.03E-24  9.50E-25
   9.81E-23  1.00E-22  7.40E-23  6.52E-23  5.63E-23  3.24E-23  4.95E-23  2.39E-23
   5.35E-23  5.50E-23  5.90E-23  4.86E-23  5.35E-23  5.24E-23  6.11E-23  5.49E-23
   2.99E-23  4.54E-23  4.52E-23  6.44E-23  4.36E-23  5.82E-23  7.12E-23  4.64E-23
   5.29E-23  4.88E-23  6.02E-23  5.90E-23  4.55E-23  4.75E-23  2.02E-23  4.39E-23
   6.54E-09  3.04E-05
   0.5000  0.3333  0.1667    1  6.90701E-06 kpt; spin; max resid(k); each band:
   1.85E-25  1.45E-25  2.60E-25  1.52E-25  4.37E-24  2.84E-24  4.59E-24  2.27E-24
   1.64E-24  1.25E-24  1.32E-24  1.17E-24  8.67E-25  8.60E-25  1.10E-24  1.03E-24
   1.02E-22  1.02E-22  5.71E-23  4.62E-23  5.20E-23  4.02E-23  4.75E-23  2.54E-23
   5.43E-23  5.25E-23  6.10E-23  5.85E-23  3.38E-23  5.29E-23  6.04E-23  5.98E-23
   3.44E-23  5.01E-23  4.67E-23  5.28E-23  4.94E-23  6.14E-23  5.12E-23  4.76E-23
   4.35E-23  6.30E-23  4.83E-23  7.39E-23  4.83E-23  4.51E-23  1.57E-23  4.29E-23
   9.95E-08  6.91E-06
  -0.3333  0.3333  0.1667    1  9.20188E-06 kpt; spin; max resid(k); each band:
   1.87E-25  1.56E-25  2.72E-25  1.60E-25  4.27E-24  3.66E-24  3.42E-24  2.75E-24
   1.67E-24  1.19E-24  1.28E-24  9.54E-25  1.18E-24  1.18E-24  9.66E-25  7.71E-25
   9.58E-23  1.03E-22  6.91E-23  6.31E-23  4.90E-23  3.63E-23  5.13E-23  2.46E-23
   5.20E-23  5.40E-23  5.82E-23  5.35E-23  5.12E-23  5.52E-23  5.60E-23  5.47E-23
   4.65E-23  4.47E-23  3.52E-23  4.79E-23  4.74E-23  6.69E-23  5.30E-23  5.14E-23
   6.09E-23  5.98E-23  4.43E-23  6.56E-23  5.07E-23  4.10E-23  1.72E-23  4.66E-23
   2.52E-08  9.20E-06
  -0.1667  0.3333  0.1667    1  4.97120E-08 kpt; spin; max resid(k); each band:
   1.89E-25  1.82E-25  2.94E-25  1.69E-25  4.83E-24  2.80E-24  3.75E-24  2.66E-24
   1.47E-24  1.45E-24  1.10E-24  1.14E-24  9.86E-25  1.31E-24  8.32E-25  8.82E-25
   9.10E-23  1.02E-22  9.63E-23  8.83E-23  5.81E-23  2.03E-23  5.00E-23  2.83E-23
   5.20E-23  5.11E-23  5.20E-23  5.46E-23  5.49E-23  7.30E-23  4.67E-23  5.86E-23
   4.61E-23  4.16E-23  3.77E-23  5.75E-23  5.39E-23  5.57E-23  4.71E-23  5.17E-23
   6.29E-23  5.55E-23  3.56E-23  4.87E-23  6.26E-23  3.16E-23  2.42E-23  4.94E-23
   1.59E-10  4.97E-08
   0.0000  0.5000  0.1667    1  8.07377E-12 kpt; spin; max resid(k); each band:
   1.84E-25  1.31E-25  2.76E-25  1.76E-25  2.51E-24  4.64E-24  3.01E-24  3.79E-24
   1.57E-24  1.39E-24  1.29E-24  1.32E-24  7.08E-25  1.32E-24  8.03E-25  1.07E-24
   4.44E-23  5.35E-23  1.13E-22  1.11E-22  2.93E-23  5.94E-23  9.35E-24  5.37E-23
   2.48E-23  3.35E-23  2.26E-23  4.09E-23  4.82E-23  5.37E-23  3.97E-23  4.43E-23
   5.93E-23  5.02E-23  4.78E-23  5.30E-23  4.75E-23  5.13E-23  2.92E-23  6.10E-23
   4.78E-23  2.77E-23  7.15E-23  6.87E-23  5.69E-23  3.42E-23  4.56E-23  2.48E-23
   6.41E-12  8.07E-12
   0.1667  0.5000  0.1667    1  3.79482E-11 kpt; spin; max resid(k); each band:
   1.83E-25  1.31E-25  2.71E-25  1.71E-25  3.19E-24  4.37E-24  2.35E-24  3.99E-24
   1.53E-24  1.59E-24  1.02E-24  1.33E-24  9.72E-25  1.11E-24  8.13E-25  1.12E-24
   6.99E-23  7.81E-23  1.17E-22  9.57E-23  2.24E-23  5.74E-23  1.42E-23  5.54E-23
   2.95E-23  3.56E-23  3.18E-23  5.05E-23  6.36E-23  4.98E-23  3.87E-23  5.42E-23
   5.89E-23  5.08E-23  4.51E-23  4.68E-23  4.09E-23  5.93E-23  3.60E-23  5.24E-23
   5.38E-23  5.35E-23  5.87E-23  5.72E-23  5.78E-23  4.21E-23  4.32E-23  2.63E-23
   6.00E-12  3.79E-11
   0.3333  0.5000  0.1667    1  2.52895E-08 kpt; spin; max resid(k); each band:
   1.83E-25  1.31E-25  2.60E-25  1.60E-25  3.07E-24  4.74E-24  2.53E-24  3.65E-24
   1.45E-24  1.78E-24  9.89E-25  1.26E-24  1.12E-24  8.76E-25  9.13E-25  9.90E-25
   8.61E-23  9.30E-23  1.14E-22  9.18E-23  4.49E-23  3.80E-23  1.78E-23  5.55E-23
   2.95E-23  3.08E-23  3.87E-23  4.73E-23  6.79E-23  4.97E-23  4.94E-23  5.03E-23
   6.55E-23  5.40E-23  4.94E-23  5.43E-23  4.59E-23  3.91E-23  6.27E-23  4.91E-23
   4.53E-23  5.31E-23  6.71E-23  5.13E-23  5.63E-23  4.35E-23  3.49E-23  2.71E-23
   8.75E-10  2.53E-08
   0.5000  0.5000  0.1667    1  2.37138E-05 kpt; spin; max resid(k); each band:
   1.85E-25  1.32E-25  2.55E-25  1.56E-25  2.81E-24  5.06E-24  2.69E-24  3.47E-24
   1.42E-24  1.73E-24  9.70E-25  1.41E-24  7.64E-25  1.07E-24  8.47E-25  9.96E-25
   8.88E-23  8.48E-23  1.04E-22  1.04E-22  4.41E-23  4.22E-23  1.68E-23  5.47E-23
   2.46E-23  2.76E-23  4.83E-23  4.54E-23  4.75E-23  4.73E-23  2.56E-23  4.33E-23
   6.77E-23  6.73E-23  5.71E-23  5.66E-23  3.74E-23  3.83E-23  6.18E-23  5.19E-23
   4.41E-23  4.97E-23  7.28E-23  6.37E-23  5.79E-23  3.86E-23  2.40E-23  3.65E-23
   1.30E-06  2.37E-05
  -0.3333  0.5000  0.1667    1  4.22445E-09 kpt; spin; max resid(k); each band:
   1.84E-25  1.30E-25  2.59E-25  1.61E-25  2.75E-24  4.85E-24  2.74E-24  3.67E-24
   1.24E-24  2.02E-24  8.06E-25  1.28E-24  1.01E-24  1.03E-24  1.00E-24  8.45E-25
   7.43E-23  6.77E-23  1.00E-22  1.22E-22  2.85E-23  5.38E-23  1.64E-23  5.20E-23
   2.59E-23  3.39E-23  5.08E-23  4.55E-23  3.58E-23  6.86E-23  4.36E-23  3.75E-23
   5.47E-23  6.86E-23  4.33E-23  5.02E-23  5.23E-23  3.77E-23  5.05E-23  4.96E-23
   4.78E-23  5.14E-23  7.15E-23  4.97E-23  5.83E-23  3.50E-23  2.90E-23  3.52E-23
   4.22E-09  3.21E-09
  -0.1667  0.5000  0.1667    1  1.29697E-10 kpt; spin; max resid(k); each band:
   1.84E-25  1.29E-25  2.70E-25  1.71E-25  2.57E-24  4.63E-24  2.99E-24  3.94E-24
   1.08E-24  1.86E-24  1.21E-24  9.74E-25  8.81E-25  1.30E-24  9.17E-25  9.57E-25
   4.74E-23  5.25E-23  1.06E-22  1.23E-22  2.36E-23  5.42E-23  1.49E-23  5.00E-23
   2.55E-23  3.42E-23  3.50E-23  4.65E-23  4.26E-23  7.20E-23  5.42E-23  5.57E-23
   4.85E-23  5.27E-23  4.54E-23  4.99E-23  5.59E-23  4.71E-23  2.72E-23  6.48E-23
   5.44E-23  6.03E-23  6.43E-23  5.64E-23  5.73E-23  3.09E-23  4.56E-23  2.86E-23
   3.04E-12  1.30E-10
   0.0000 -0.3333  0.1667    1  4.95123E-05 kpt; spin; max resid(k); each band:
   1.90E-25  1.97E-25  3.03E-25  1.72E-25  2.28E-24  4.40E-24  4.60E-24  2.56E-24
   1.46E-24  1.33E-24  1.51E-24  1.33E-24  1.14E-24  9.54E-25  1.09E-24  6.26E-25
   8.94E-23  1.01E-22  1.01E-22  9.60E-23  2.46E-23  5.81E-23  2.24E-23  4.20E-23
   5.25E-23  4.79E-23  5.43E-23  6.18E-23  4.98E-23  6.35E-23  4.54E-23  5.81E-23
   4.08E-23  4.79E-23  4.17E-23  5.32E-23  4.19E-23  6.77E-23  4.96E-23  6.60E-23
   3.74E-23  6.14E-23  3.33E-23  6.38E-23  3.37E-23  6.03E-23  4.44E-23  2.63E-23
   5.81E-10  4.95E-05
   0.1667 -0.3333  0.1667    1  1.86336E-07 kpt; spin; max resid(k); each band:
   1.89E-25  1.85E-25  2.95E-25  1.68E-25  2.61E-24  4.46E-24  4.06E-24  2.71E-24
   1.66E-24  1.59E-24  1.40E-24  1.13E-24  1.19E-24  8.23E-25  8.38E-25  8.14E-25
   9.19E-23  1.13E-22  8.92E-23  7.77E-23  1.29E-23  5.67E-23  2.23E-23  4.99E-23
   5.35E-23  4.46E-23  5.77E-23  5.15E-23  4.64E-23  7.16E-23  4.60E-23  5.29E-23
   5.27E-23  4.65E-23  4.42E-23  4.81E-23  5.06E-23  5.96E-23  5.81E-23  5.15E-23
   4.28E-23  5.11E-23  5.81E-23  5.01E-23  3.59E-23  5.28E-23  4.38E-23  2.51E-23
   6.11E-10  1.86E-07
   0.3333 -0.3333  0.1667    1  5.01056E-05 kpt; spin; max resid(k); each band:
   1.88E-25  1.60E-25  2.72E-25  1.55E-25  3.00E-24  3.89E-24  4.11E-24  2.95E-24
   1.83E-24  1.28E-24  1.55E-24  1.15E-24  9.85E-25  8.69E-25  9.09E-25  8.07E-25
   9.80E-23  1.15E-22  6.08E-23  4.86E-23  2.71E-23  4.30E-23  1.90E-23  5.26E-23
   5.15E-23  5.27E-23  5.69E-23  5.15E-23  4.69E-23  6.37E-23  6.27E-23  4.21E-23
   5.67E-23  3.30E-23  5.04E-23  5.23E-23  4.77E-23  6.52E-23  5.05E-23  3.53E-23
   5.47E-23  4.98E-23  6.11E-23  5.76E-23  4.31E-23  5.01E-23  4.32E-23  2.14E-23
   3.28E-07  5.01E-05
   0.5000 -0.3333  0.1667    1  1.61622E-06 kpt; spin; max resid(k); each band:
   1.87E-25  1.48E-25  2.58E-25  1.50E-25  2.89E-24  3.61E-24  4.72E-24  2.80E-24
   1.89E-24  1.43E-24  1.15E-24  1.12E-24  8.76E-25  9.82E-25  1.05E-24  8.12E-25
   1.02E-22  1.03E-22  4.38E-23  3.15E-23  3.36E-23  4.21E-23  1.71E-23  5.06E-23
   5.25E-23  5.16E-23  5.96E-23  6.03E-23  5.17E-23  3.72E-23  5.12E-23  5.50E-23
   5.11E-23  3.93E-23  5.33E-23  5.70E-23  5.00E-23  5.09E-23  5.77E-23  4.59E-23
   4.75E-23  7.20E-23  3.81E-23  6.36E-23  4.07E-23  5.03E-23  4.28E-23  1.94E-23
   1.40E-06  1.62E-06
  -0.3333 -0.3333  0.1667    1  2.61516E-06 kpt; spin; max resid(k); each band:
   1.88E-25  1.61E-25  2.72E-25  1.59E-25  2.56E-24  4.59E-24  4.12E-24  2.72E-24
   1.68E-24  1.43E-24  1.56E-24  8.04E-25  9.66E-25  1.11E-24  8.00E-25  9.01E-25
   9.63E-23  8.85E-23  6.92E-23  5.36E-23  3.35E-23  4.59E-23  1.20E-23  4.79E-23
   5.26E-23  5.07E-23  6.23E-23  5.62E-23  6.35E-23  4.38E-23  4.73E-23  4.63E-23
   5.31E-23  3.89E-23  4.77E-23  5.56E-23  5.98E-23  5.55E-23  6.06E-23  2.59E-23
   6.52E-23  5.04E-23  7.08E-23  5.06E-23  3.76E-23  5.01E-23  4.54E-23  1.94E-23
   1.25E-09  2.62E-06
  -0.1667 -0.3333  0.1667    1  1.42489E-06 kpt; spin; max resid(k); each band:
   1.89E-25  1.85E-25  2.94E-25  1.68E-25  2.40E-24  4.54E-24  4.39E-24  2.66E-24
   1.70E-24  1.25E-24  1.38E-24  1.11E-24  1.12E-24  1.08E-24  9.15E-25  7.12E-25
   9.08E-23  8.95E-23  9.82E-23  9.34E-23  1.44E-23  5.42E-23  9.99E-24  4.32E-23
   5.18E-23  4.56E-23  5.31E-23  6.55E-23  6.87E-23  4.06E-23  4.50E-23  5.69E-23
   4.03E-23  4.65E-23  4.55E-23  5.15E-23  5.34E-23  6.56E-23  5.63E-23  4.59E-23
   6.07E-23  6.40E-23  6.20E-23  4.36E-23  3.42E-23  5.74E-23  4.61E-23  2.34E-23
   5.29E-11  1.42E-06
 outwf : prtvol=0 or 1, do not print more k-points.
 
in cg_ncwrite with path: o_WFK.nc
same layout Writing WFK file: o_WFK.nc, with iomode: IO_MODE_ETSF, single writer: F
 
--- !COMMENT
src_file: m_iowf.F90
src_line: 908
message: |
    Will create subcommunicator to exclude idle processors from MPI-IO collective calls
...
 
