
.Version 9.4.1 of ABINIT 
.(MPI version, prepared for a x86_64_linux_intel19.0 computer) 

.Copyright (C) 1998-2021 ABINIT group . 
 ABINIT comes with ABSOLUTELY NO WARRANTY.
 It is free software, and you are welcome to redistribute it
 under certain conditions (GNU General Public License,
 see ~abinit/COPYING or http://www.gnu.org/copyleft/gpl.txt).

 ABINIT is a project of the Universite Catholique de Louvain,
 Corning Inc. and other collaborators, see ~abinit/doc/developers/contributors.txt .
 Please read https://docs.abinit.org/theory/acknowledgments for suggested
 acknowledgments of the ABINIT effort.
 For more information, see https://www.abinit.org .

.Starting date : Sat  3 Jul 2021.
- ( at 07h26 )
  
- input  file    -> PATH19
- output file    -> PATH19.abo
- root for input  files -> i
- root for output files -> o
 
 
 Symmetries : space group P1 (#  1); Bravais aP (primitive triclinic)
================================================================================
 Values of the parameters that define the memory need of the present run
     intxc =       0    ionmov =       0      iscf =       7    lmnmax =       8
     lnmax =       8     mgfft =      45  mpssoang =       4    mqgrid =    3001
     natom =      12  nloc_mem =       1    nspden =       1   nspinor =       1
    nsppol =       1      nsym =       1    n1xccc =    2501    ntypat =       2
    occopt =       1   xclevel =       2
-    mband =          50        mffmem =           1         mkmem =           4
       mpw =        5280          nfft =       91125          nkpt =         112
================================================================================
P This job should need less than                      45.554 Mbytes of memory.
  Rough estimation (10% accuracy) of disk space for files :
_ WF disk file :    451.174 Mbytes ; DEN or POT disk file :      0.697 Mbytes.
================================================================================
 
--------------------------------------------------------------------------------
------------- Echo of variables that govern the present computation ------------
--------------------------------------------------------------------------------
-
- outvars: echo of selected default values                                      
-   iomode0 =  3 , fftalg0 =512 , wfoptalg0 =  0
-
- outvars: echo of global parameters not present in the input file              
-  max_nthreads =    0
-
 -outvars: echo values of preprocessed input variables --------
            acell      9.5914334888E+00  9.5914334888E+00  9.5914334888E+00 Bohr
              amu      1.78490000E+02  1.59994000E+01
          chkprim           0
             ecut      2.50000000E+01 Hartree
           ecutsm      5.00000000E-01 Hartree
-          fftalg         512
           istwfk        2    0    0    3    0    0    0    0    0    0
                         0    0    0    0    0    0    6    0    0    7
                         0    0    0    0    0    0    0    0    0    0
                         0    0    0    0    0    0    0    0    0    0
                         0    0    0    0    0    0    0    0    0    0
                       outvar_i_n : Printing only first  50 k-points.
              ixc          11
              kpt      0.00000000E+00  0.00000000E+00  0.00000000E+00
                       1.66666667E-01  0.00000000E+00  0.00000000E+00
                       3.33333333E-01  0.00000000E+00  0.00000000E+00
                       5.00000000E-01  0.00000000E+00  0.00000000E+00
                       0.00000000E+00  1.66666667E-01  0.00000000E+00
                       1.66666667E-01  1.66666667E-01  0.00000000E+00
                       3.33333333E-01  1.66666667E-01  0.00000000E+00
                       5.00000000E-01  1.66666667E-01  0.00000000E+00
                      -3.33333333E-01  1.66666667E-01  0.00000000E+00
                      -1.66666667E-01  1.66666667E-01  0.00000000E+00
                       0.00000000E+00  3.33333333E-01  0.00000000E+00
                       1.66666667E-01  3.33333333E-01  0.00000000E+00
                       3.33333333E-01  3.33333333E-01  0.00000000E+00
                       5.00000000E-01  3.33333333E-01  0.00000000E+00
                      -3.33333333E-01  3.33333333E-01  0.00000000E+00
                      -1.66666667E-01  3.33333333E-01  0.00000000E+00
                       0.00000000E+00  5.00000000E-01  0.00000000E+00
                       1.66666667E-01  5.00000000E-01  0.00000000E+00
                       3.33333333E-01  5.00000000E-01  0.00000000E+00
                       5.00000000E-01  5.00000000E-01  0.00000000E+00
                       0.00000000E+00  0.00000000E+00  1.66666667E-01
                       1.66666667E-01  0.00000000E+00  1.66666667E-01
                       3.33333333E-01  0.00000000E+00  1.66666667E-01
                       5.00000000E-01  0.00000000E+00  1.66666667E-01
                      -3.33333333E-01  0.00000000E+00  1.66666667E-01
                      -1.66666667E-01  0.00000000E+00  1.66666667E-01
                       0.00000000E+00  1.66666667E-01  1.66666667E-01
                       1.66666667E-01  1.66666667E-01  1.66666667E-01
                       3.33333333E-01  1.66666667E-01  1.66666667E-01
                       5.00000000E-01  1.66666667E-01  1.66666667E-01
                      -3.33333333E-01  1.66666667E-01  1.66666667E-01
                      -1.66666667E-01  1.66666667E-01  1.66666667E-01
                       0.00000000E+00  3.33333333E-01  1.66666667E-01
                       1.66666667E-01  3.33333333E-01  1.66666667E-01
                       3.33333333E-01  3.33333333E-01  1.66666667E-01
                       5.00000000E-01  3.33333333E-01  1.66666667E-01
                      -3.33333333E-01  3.33333333E-01  1.66666667E-01
                      -1.66666667E-01  3.33333333E-01  1.66666667E-01
                       0.00000000E+00  5.00000000E-01  1.66666667E-01
                       1.66666667E-01  5.00000000E-01  1.66666667E-01
                       3.33333333E-01  5.00000000E-01  1.66666667E-01
                       5.00000000E-01  5.00000000E-01  1.66666667E-01
                      -3.33333333E-01  5.00000000E-01  1.66666667E-01
                      -1.66666667E-01  5.00000000E-01  1.66666667E-01
                       0.00000000E+00 -3.33333333E-01  1.66666667E-01
                       1.66666667E-01 -3.33333333E-01  1.66666667E-01
                       3.33333333E-01 -3.33333333E-01  1.66666667E-01
                       5.00000000E-01 -3.33333333E-01  1.66666667E-01
                      -3.33333333E-01 -3.33333333E-01  1.66666667E-01
                      -1.66666667E-01 -3.33333333E-01  1.66666667E-01
                       outvar_i_n : Printing only first  50 k-points.
           kptopt           2
         kptrlatt        6    0    0      0    6    0      0    0    6
          kptrlen      5.75486009E+01
P           mkmem           4
            natom          12
            nband          50
            ngfft          45      45      45
             nkpt         112
            nstep         100
             nsym           1
           ntypat           2
              occ      2.000000  2.000000  2.000000  2.000000  2.000000  2.000000
                       2.000000  2.000000  2.000000  2.000000  2.000000  2.000000
                       2.000000  2.000000  2.000000  2.000000  2.000000  2.000000
                       2.000000  2.000000  2.000000  2.000000  2.000000  2.000000
                       2.000000  2.000000  2.000000  2.000000  2.000000  2.000000
                       2.000000  2.000000  2.000000  2.000000  2.000000  2.000000
                       2.000000  2.000000  2.000000  2.000000  2.000000  2.000000
                       2.000000  2.000000  2.000000  2.000000  2.000000  2.000000
                       0.000000  0.000000
        pawecutdg      2.50000000E+01 Hartree
         pawxcdev           0
          spgroup           1
        symmorphi           0
           tolmxf      1.00000000E-05
           tolvrs      1.00000000E-18
           tsmear      4.00000000E-02 Hartree
            typat      1  1  1  1  2  2  2  2  2  2  2  2
              wtk        0.00463    0.00926    0.00926    0.00463    0.00926    0.00926
                         0.00926    0.00926    0.00926    0.00926    0.00926    0.00926
                         0.00926    0.00926    0.00926    0.00926    0.00463    0.00926
                         0.00926    0.00463    0.00926    0.00926    0.00926    0.00926
                         0.00926    0.00926    0.00926    0.00926    0.00926    0.00926
                         0.00926    0.00926    0.00926    0.00926    0.00926    0.00926
                         0.00926    0.00926    0.00926    0.00926    0.00926    0.00926
                         0.00926    0.00926    0.00926    0.00926    0.00926    0.00926
                         0.00926    0.00926
                       outvars : Printing only first  50 k-points.
           xangst     -8.9989820640E-05  3.1976078400E-05 -1.5525096643E-01
                      -9.0649644480E-05  2.5379101786E+00  2.3825896769E+00
                       2.3715040781E+00  3.1925322720E-05  2.3825112086E+00
                       2.3715043826E+00  2.5379102294E+00 -1.5517259966E-01
                       9.7832705052E-01  1.2544636828E+00  3.5836243781E+00
                       9.7895530432E-01  3.7913143874E+00  3.7190136318E+00
                       1.3930083157E+00  3.7910182280E+00  1.1815923827E+00
                       1.3933314263E+00  1.2543407526E+00  1.0461804411E+00
                       4.0925382835E+00  6.9942159433E-01  1.7206299871E+00
                       4.0924204288E+00  3.2381388390E+00  5.0722754790E-01
                       3.3553164472E+00  3.2381843669E+00  3.0453515602E+00
                       3.3544829374E+00  6.9929389304E-01  4.2587767380E+00
            xcart     -1.7005611576E-04  6.0426030980E-05 -2.9338180841E-01
                      -1.7130300211E-04  4.7959551875E+00  4.5024419764E+00
                       4.4814932306E+00  6.0330116645E-05  4.5022936928E+00
                       4.4814938061E+00  4.7959552834E+00 -2.9323371668E-01
                       1.8487701939E+00  2.3705928042E+00  6.7720686377E+00
                       1.8499574215E+00  7.1645458759E+00  7.0279172486E+00
                       2.6324042175E+00  7.1639862157E+00  2.2328860039E+00
                       2.6330148081E+00  2.3703604997E+00  1.9769945194E+00
                       7.7337765441E+00  1.3217152647E+00  3.2515194517E+00
                       7.7335538310E+00  6.1191955860E+00  9.5852115259E-01
                       6.3406291744E+00  6.1192816212E+00  5.7548804271E+00
                       6.3390540692E+00  1.3214739442E+00  8.0479216959E+00
             xred     -1.7730000000E-05  6.3000000000E-06 -3.0587900000E-02
                      -1.7860000000E-05  5.0002486000E-01  4.6942326000E-01
                       4.6723915000E-01  6.2900000000E-06  4.6940780000E-01
                       4.6723921000E-01  5.0002487000E-01 -3.0572460000E-02
                       1.9275223000E-01  2.4715730000E-01  7.0605386000E-01
                       1.9287601000E-01  7.4697342000E-01  7.3272856000E-01
                       2.7445368000E-01  7.4691507000E-01  2.3280003000E-01
                       2.7451734000E-01  2.4713308000E-01  2.0612086000E-01
                       8.0632124000E-01  1.3780164000E-01  3.3900245000E-01
                       8.0629802000E-01  6.3798551000E-01  9.9935130000E-02
                       6.6107211000E-01  6.3799448000E-01  6.0000212000E-01
                       6.6090789000E-01  1.3777648000E-01  8.3907392000E-01
            znucl       72.00000    8.00000
 
================================================================================
 
 chkinp: Checking input parameters for consistency.
 
================================================================================
== DATASET  1 ==================================================================
-   mpi_nproc: 36, omp_nthreads: -1 (-1 if OMP is not activated)
-    --> not optimal distribution: autoparal keyword recommended in input file <--
 

--- !DatasetInfo
iteration_state: {dtset: 1, }
dimensions: {natom: 12, nkpt: 112, mband: 50, nsppol: 1, nspinor: 1, nspden: 1, mpw: 5280, }
cutoff_energies: {ecut:  25.0, pawecutdg:  25.0, }
electrons: {nelect:   9.60000000E+01, charge:   0.00000000E+00, occopt:   1.00000000E+00, tsmear:   4.00000000E-02, }
meta: {optdriver: 0, ionmov: 0, optcell: 0, iscf: 7, paral_kgb: 0, }
...

 Exchange-correlation functional for the present dataset will be:
  GGA: Perdew-Burke-Ernzerhof functional - ixc=11
 Citation for XC functional:
  J.P.Perdew, K.Burke, M.Ernzerhof, PRL 77, 3865 (1996)
 
 Real(R)+Recip(G) space primitive vectors, cartesian coordinates (Bohr,Bohr^-1):
 R(1)=  9.5914335  0.0000000  0.0000000  G(1)=  0.1042597  0.0000000  0.0000000
 R(2)=  0.0000000  9.5914335  0.0000000  G(2)=  0.0000000  0.1042597  0.0000000
 R(3)=  0.0000000  0.0000000  9.5914335  G(3)=  0.0000000  0.0000000  0.1042597
 Unit cell volume ucvol=  8.8236964E+02 bohr^3
 Angles (23,13,12)=  9.00000000E+01  9.00000000E+01  9.00000000E+01 degrees
 
 getcut: wavevector=  0.0000  0.0000  0.0000  ngfft=  45  45  45
         ecut(hartree)=     25.000   => boxcut(ratio)=   2.03814
 
--- Pseudopotential description ------------------------------------------------
- pspini: atom type   1  psp file is /workspace/jiahaoz/PACKAGE_INSTALL/abinit-9.4.1/pbe_s_sr/Hf.psp8
- pspatm: opening atomic psp file    /workspace/jiahaoz/PACKAGE_INSTALL/abinit-9.4.1/pbe_s_sr/Hf.psp8
- Hf    ONCVPSP  r_core=  1.72  1.72  1.72  2.43
- 72.00000  12.00000    160625                znucl, zion, pspdat
    8   11    3    4       600   0.00000      pspcod,pspxc,lmax,lloc,mmax,r2well
    5.99000000000000    5.40000000000000    0.00000000000000   rchrg,fchrg,qchrg
     nproj     2     2     2     2
     extension_switch     1
  pspatm : epsatm=   21.98649506
         --- l  ekb(1:nproj) -->
             0    5.812335   -0.521211
             1   -3.038329    2.466565
             2    2.060039    0.471534
             3    9.947446    0.353012
 pspatm: atomic psp has been read  and splines computed
 
- pspini: atom type   2  psp file is /workspace/jiahaoz/PACKAGE_INSTALL/abinit-9.4.1/pbe_s_sr/O.psp8
- pspatm: opening atomic psp file    /workspace/jiahaoz/PACKAGE_INSTALL/abinit-9.4.1/pbe_s_sr/O.psp8
- O     ONCVPSP  r_core=  1.36  1.46  1.26
-  8.00000   6.00000    151103                znucl, zion, pspdat
    8   11    2    4       600   0.00000      pspcod,pspxc,lmax,lloc,mmax,r2well
    5.99000000000000    4.00000000000000    0.00000000000000   rchrg,fchrg,qchrg
     nproj     2     2     1
     extension_switch     1
  pspatm : epsatm=    6.19401560
         --- l  ekb(1:nproj) -->
             0    5.257212    0.704241
             1   -5.135443   -1.451781
             2   -4.371486
 pspatm: atomic psp has been read  and splines computed
 
   1.31998181E+04                                ecore*ucvol(ha*bohr**3)
--------------------------------------------------------------------------------
 
_setup2: Arith. and geom. avg. npw (full set) are    5268.875    5268.869
 
================================================================================

--- !BeginCycle
iteration_state: {dtset: 1, }
solver: {iscf: 7, nstep: 100, nline: 4, wfoptalg: 0, }
tolerances: {tolvrs: 1.00E-18, }
...
 
     iter   Etot(hartree)      deltaE(h)  residm     vres2
 ETOT  1  -357.55612656162    -3.576E+02 3.030E-01 1.325E+03
 ETOT  2  -357.46018981782     9.594E-02 2.672E-02 1.636E+03
 ETOT  3  -358.58901428927    -1.129E+00 7.716E-03 4.635E+01
 ETOT  4  -358.61293583905    -2.392E-02 5.957E-03 2.345E+00
 ETOT  5  -358.61393092503    -9.951E-04 2.471E-03 9.686E-01
 ETOT  6  -358.61422335351    -2.924E-04 3.303E-03 5.450E-03
 ETOT  7  -358.61422478582    -1.432E-06 1.289E-03 1.121E-03
 ETOT  8  -358.61422507410    -2.883E-07 1.947E-03 4.389E-04
 ETOT  9  -358.61422526422    -1.901E-07 8.743E-04 3.142E-06
 ETOT 10  -358.61422526570    -1.481E-09 1.402E-03 4.938E-07
 ETOT 11  -358.61422526578    -7.293E-11 5.894E-04 2.895E-07
 ETOT 12  -358.61422526589    -1.166E-10 9.516E-04 1.200E-08
 ETOT 13  -358.61422526590    -4.547E-12 3.305E-04 4.254E-10
 ETOT 14  -358.61422526590     1.705E-12 5.190E-04 4.069E-10
 ETOT 15  -358.61422526590    -1.705E-13 2.130E-04 1.203E-11
 ETOT 16  -358.61422526590    -6.821E-13 3.190E-04 1.889E-12
 ETOT 17  -358.61422526590    -9.095E-13 2.228E-04 7.712E-13
 ETOT 18  -358.61422526590     2.842E-13 3.041E-04 1.342E-13
 ETOT 19  -358.61422526590     9.095E-13 1.988E-04 3.068E-14
 ETOT 20  -358.61422526590     1.705E-13 2.477E-04 4.238E-15
 ETOT 21  -358.61422526590    -6.253E-13 1.533E-04 4.681E-16
 ETOT 22  -358.61422526590    -1.705E-13 1.781E-04 1.352E-16
 ETOT 23  -358.61422526590     5.684E-14 1.059E-04 4.605E-18
 ETOT 24  -358.61422526590     5.684E-13 1.327E-04 5.635E-19
 
 At SCF step   24       vres2   =  5.63E-19 < tolvrs=  1.00E-18 =>converged.
 
 Cartesian components of stress tensor (hartree/bohr^3)
  sigma(1 1)= -2.91101173E-04  sigma(3 2)=  4.36572952E-07
  sigma(2 2)= -3.39692277E-04  sigma(3 1)= -1.50483795E-08
  sigma(3 3)= -5.67978535E-04  sigma(2 1)=  2.71302089E-07
 

--- !ResultsGS
iteration_state: {dtset: 1, }
comment   : Summary of ground state results
lattice_vectors:
- [  9.5914335,   0.0000000,   0.0000000, ]
- [  0.0000000,   9.5914335,   0.0000000, ]
- [  0.0000000,   0.0000000,   9.5914335, ]
lattice_lengths: [   9.59143,    9.59143,    9.59143, ]
lattice_angles: [ 90.000,  90.000,  90.000, ] # degrees, (23, 13, 12)
lattice_volume:   8.8236964E+02
convergence: {deltae:  5.684E-13, res2:  5.635E-19, residm:  1.327E-04, diffor: null, }
etotal    :  -3.58614225E+02
entropy   :   0.00000000E+00
fermie    :   2.84246908E-01
cartesian_stress_tensor: # hartree/bohr^3
- [ -2.91101173E-04,   2.71302089E-07,  -1.50483795E-08, ]
- [  2.71302089E-07,  -3.39692277E-04,   4.36572952E-07, ]
- [ -1.50483795E-08,   4.36572952E-07,  -5.67978535E-04, ]
pressure_GPa:   1.1756E+01
xred      :
- [ -1.7730E-05,   6.3000E-06,  -3.0588E-02, Hf]
- [ -1.7860E-05,   5.0002E-01,   4.6942E-01, Hf]
- [  4.6724E-01,   6.2900E-06,   4.6941E-01, Hf]
- [  4.6724E-01,   5.0002E-01,  -3.0572E-02, Hf]
- [  1.9275E-01,   2.4716E-01,   7.0605E-01,  O]
- [  1.9288E-01,   7.4697E-01,   7.3273E-01,  O]
- [  2.7445E-01,   7.4692E-01,   2.3280E-01,  O]
- [  2.7452E-01,   2.4713E-01,   2.0612E-01,  O]
- [  8.0632E-01,   1.3780E-01,   3.3900E-01,  O]
- [  8.0630E-01,   6.3799E-01,   9.9935E-02,  O]
- [  6.6107E-01,   6.3799E-01,   6.0000E-01,  O]
- [  6.6091E-01,   1.3778E-01,   8.3907E-01,  O]
cartesian_forces: # hartree/bohr
- [ -1.68318817E-02,   2.33778921E-03,   4.49112172E-02, ]
- [ -1.69396510E-02,   2.45591875E-03,  -4.50424635E-02, ]
- [  1.68965280E-02,   2.36782387E-03,   4.49765111E-02, ]
- [  1.70358531E-02,   2.45213878E-03,  -4.50140893E-02, ]
- [  1.19121913E-02,  -3.59641417E-03,  -5.11549571E-04, ]
- [  1.17604768E-02,  -3.09089841E-03,   8.28403540E-04, ]
- [ -1.17817113E-02,  -3.07891517E-03,   6.90751837E-04, ]
- [ -1.19090304E-02,  -3.56675994E-03,  -6.90297911E-04, ]
- [  7.10685447E-03,   8.05060580E-04,  -6.20465005E-03, ]
- [  6.96885968E-03,   1.02517152E-03,   6.07677517E-03, ]
- [ -7.10018992E-03,   1.07065176E-03,   6.14834334E-03, ]
- [ -7.11829911E-03,   8.18433235E-04,  -6.16895185E-03, ]
force_length_stats: {min:   9.30285861E-03, max:   4.81923387E-02, mean:   2.32890927E-02, }
...

 Integrated electronic density in atomic spheres:
 ------------------------------------------------
 Atom  Sphere_radius  Integrated_density
    1        2.00000          8.36346516
    2        2.00000          8.35610827
    3        2.00000          8.34776179
    4        2.00000          8.35168716
    5        2.00000          6.42354177
    6        2.00000          6.41974350
    7        2.00000          6.41855571
    8        2.00000          6.42050011
    9        2.00000          6.33719688
   10        2.00000          6.32918093
   11        2.00000          6.33942802
   12        2.00000          6.33884808
================================================================================
 
 ----iterations are completed or convergence reached----
 
 Mean square residual over all n,k,spin=   22.307E-08; max=  13.271E-05
 reduced coordinates (array xred) for   12 atoms
      -0.000017730000      0.000006300000     -0.030587900000
      -0.000017860000      0.500024860000      0.469423260000
       0.467239150000      0.000006290000      0.469407800000
       0.467239210000      0.500024870000     -0.030572460000
       0.192752230000      0.247157300000      0.706053860000
       0.192876010000      0.746973420000      0.732728560000
       0.274453680000      0.746915070000      0.232800030000
       0.274517340000      0.247133080000      0.206120860000
       0.806321240000      0.137801640000      0.339002450000
       0.806298020000      0.637985510000      0.099935130000
       0.661072110000      0.637994480000      0.600002120000
       0.660907890000      0.137776480000      0.839073920000
 rms dE/dt=  1.6166E-01; max dE/dt=  4.3202E-01; dE/dt below (all hartree)
    1       0.161397985837     -0.022424144936     -0.430760556098
    2       0.162431647376     -0.023557176572      0.432024189252
    3      -0.162105812812     -0.022712220372     -0.431386818252
    4      -0.163442140173     -0.023520921191      0.431752039415
    5      -0.114298878308      0.034493372110      0.004908889992
    6      -0.112843719078      0.029644751340     -0.007943181144
    7       0.112959612316      0.029529814870     -0.006622903990
    8       0.114180784572      0.034208945506      0.006623342810
    9      -0.068208810024     -0.007723080225      0.059513884559
   10      -0.066885242178     -0.009834259617     -0.058282588587
   11       0.068057111280     -0.010270480325     -0.058969029942
   12       0.068230804358     -0.007851343149      0.059171487708
 
 cartesian coordinates (angstrom) at end:
    1     -0.00008998982064     0.00003197607840    -0.15525096642720
    2     -0.00009064964448     2.53791017862048     2.38258967691168
    3      2.37150407808720     0.00003192532272     2.38251120863040
    4      2.37150438262128     2.53791022937616    -0.15517259965728
    5      0.97832705051664     1.25446368284640     3.58362437809248
    6      0.97895530432368     3.79131438740256     3.71901363182208
    7      1.39300831569024     3.79101822800976     1.18159238266704
    8      1.39333142634912     1.25434075258944     1.04618044114848
    9      4.09253828346432     0.69942159433152     1.72062998714160
   10      4.09242042877536     3.23813883901968     0.50722754790384
   11      3.35531644720848     3.23818436686464     3.04535156020416
   12      3.35448293743152     0.69929389304064     4.25877673798656
 
 cartesian forces (hartree/bohr) at end:
    1     -0.01683188170927     0.00233778921040     0.04491121717199
    2     -0.01693965095359     0.00245591875146    -0.04504246351129
    3      0.01689652802482     0.00236782386957     0.04497651107773
    4      0.01703585311761     0.00245213877618    -0.04501408925025
    5      0.01191219126645    -0.00359641417138    -0.00051154957052
    6      0.01176047679833    -0.00309089841341     0.00082840353980
    7     -0.01178171130696    -0.00307891517134     0.00069075183685
    8     -0.01190903036278    -0.00356675993833    -0.00069029791088
    9      0.00710685446905     0.00080506058043    -0.00620465004716
   10      0.00696885967948     0.00102517151533     0.00607677517291
   11     -0.00710018991727     0.00107065175638     0.00614834334419
   12     -0.00711829910588     0.00081843323472    -0.00616895185337
 frms,max,avg= 1.6854340E-02 4.5042464E-02   4.576E-06  1.455E-07 -2.498E-07 h/b
 
 cartesian forces (eV/Angstrom) at end:
    1     -0.86553008489809     0.12021394450709     2.30942744745802
    2     -0.87107180178983     0.12628840923240    -2.31617640501096
    3      0.86885433182163     0.12175838864912     2.31278499480462
    4      0.87601871554722     0.12609403510471    -2.31471734196700
    5      0.61254945206105    -0.18493503678616    -0.02630493434146
    6      0.60474798109455    -0.15894037353532     0.04259821917250
    7     -0.60583990333883    -0.15832417050407     0.03551988460462
    8     -0.61238691187275    -0.18341015494029    -0.03549654279476
    9      0.36544911960527     0.04139787604028    -0.31905590681061
   10      0.35835314281606     0.05271643444415     0.31248031694645
   11     -0.36510641460241     0.05505512227348     0.31616049997260
   12     -0.36603762644386     0.04208552551460    -0.31722023203401
 frms,max,avg= 8.6668495E-01 2.3161764E+00   2.353E-04  7.480E-06 -1.285E-05 e/A
 length scales=  9.591433488838  9.591433488838  9.591433488838 bohr
              =  5.075568000000  5.075568000000  5.075568000000 angstroms
 prteigrs : about to open file o_EIG
 Fermi (or HOMO) energy (hartree) =   0.28425   Average Vxc (hartree)=  -0.44644
 Eigenvalues (hartree) for nkpt= 112  k points:
 kpt#   1, nband= 50, wtk=  0.00463, kpt=  0.0000  0.0000  0.0000 (reduced coord)
  -1.94225   -1.94155   -1.94152   -1.94144   -0.80631   -0.80628   -0.80573   -0.79513
  -0.79364   -0.79325   -0.79322   -0.79256   -0.79121   -0.78758   -0.78757   -0.78744
  -0.40034   -0.34775   -0.34665   -0.34304   -0.31164   -0.30600   -0.30533   -0.30124
   0.06875    0.06892    0.07549    0.09599    0.10036    0.11003    0.16048    0.16354
   0.16755    0.16938    0.17476    0.18032    0.19959    0.20300    0.20838    0.21994
   0.22929    0.22987    0.23088    0.23181    0.24620    0.26266    0.28073    0.28425
   0.45646    0.46140
 prteigrs : prtvol=0 or 1, do not print more k-points.
 

--- !EnergyTerms
iteration_state     : {dtset: 1, }
comment             : Components of total free energy in Hartree
kinetic             :  1.46416128713657E+02
hartree             :  5.60597609058031E+01
xc                  : -9.09479207642618E+01
Ewald energy        : -2.69798481717798E+02
psp_core            :  1.49595106529080E+01
local_psp           : -2.06180721027066E+02
non_local_psp       : -9.12250202913980E+00
total_energy        : -3.58614225265897E+02
total_energy_eV     : -9.75838934136684E+03
band_energy         : -3.13093982420878E+01
...

 
 Cartesian components of stress tensor (hartree/bohr^3)
  sigma(1 1)= -2.91101173E-04  sigma(3 2)=  4.36572952E-07
  sigma(2 2)= -3.39692277E-04  sigma(3 1)= -1.50483795E-08
  sigma(3 3)= -5.67978535E-04  sigma(2 1)=  2.71302089E-07
 
-Cartesian components of stress tensor (GPa)         [Pressure=  1.1756E+01 GPa]
- sigma(1 1)= -8.56449076E+00  sigma(3 2)=  1.28444175E-02
- sigma(2 2)= -9.99409015E+00  sigma(3 1)= -4.42738536E-04
- sigma(3 3)= -1.67105026E+01  sigma(2 1)=  7.98198170E-03
 
== END DATASET(S) ==============================================================
================================================================================
  
 -outvars: echo values of variables after computation  --------
            acell      9.5914334888E+00  9.5914334888E+00  9.5914334888E+00 Bohr
              amu      1.78490000E+02  1.59994000E+01
          chkprim           0
             ecut      2.50000000E+01 Hartree
           ecutsm      5.00000000E-01 Hartree
           etotal     -3.5861422527E+02
            fcart     -1.6831881709E-02  2.3377892104E-03  4.4911217172E-02
                      -1.6939650954E-02  2.4559187515E-03 -4.5042463511E-02
                       1.6896528025E-02  2.3678238696E-03  4.4976511078E-02
                       1.7035853118E-02  2.4521387762E-03 -4.5014089250E-02
                       1.1912191266E-02 -3.5964141714E-03 -5.1154957052E-04
                       1.1760476798E-02 -3.0908984134E-03  8.2840353980E-04
                      -1.1781711307E-02 -3.0789151713E-03  6.9075183685E-04
                      -1.1909030363E-02 -3.5667599383E-03 -6.9029791088E-04
                       7.1068544690E-03  8.0506058043E-04 -6.2046500472E-03
                       6.9688596795E-03  1.0251715153E-03  6.0767751729E-03
                      -7.1001899173E-03  1.0706517564E-03  6.1483433442E-03
                      -7.1182991059E-03  8.1843323472E-04 -6.1689518534E-03
-          fftalg         512
           istwfk        2    0    0    3    0    0    0    0    0    0
                         0    0    0    0    0    0    6    0    0    7
                         0    0    0    0    0    0    0    0    0    0
                         0    0    0    0    0    0    0    0    0    0
                         0    0    0    0    0    0    0    0    0    0
                       outvar_i_n : Printing only first  50 k-points.
              ixc          11
              kpt      0.00000000E+00  0.00000000E+00  0.00000000E+00
                       1.66666667E-01  0.00000000E+00  0.00000000E+00
                       3.33333333E-01  0.00000000E+00  0.00000000E+00
                       5.00000000E-01  0.00000000E+00  0.00000000E+00
                       0.00000000E+00  1.66666667E-01  0.00000000E+00
                       1.66666667E-01  1.66666667E-01  0.00000000E+00
                       3.33333333E-01  1.66666667E-01  0.00000000E+00
                       5.00000000E-01  1.66666667E-01  0.00000000E+00
                      -3.33333333E-01  1.66666667E-01  0.00000000E+00
                      -1.66666667E-01  1.66666667E-01  0.00000000E+00
                       0.00000000E+00  3.33333333E-01  0.00000000E+00
                       1.66666667E-01  3.33333333E-01  0.00000000E+00
                       3.33333333E-01  3.33333333E-01  0.00000000E+00
                       5.00000000E-01  3.33333333E-01  0.00000000E+00
                      -3.33333333E-01  3.33333333E-01  0.00000000E+00
                      -1.66666667E-01  3.33333333E-01  0.00000000E+00
                       0.00000000E+00  5.00000000E-01  0.00000000E+00
                       1.66666667E-01  5.00000000E-01  0.00000000E+00
                       3.33333333E-01  5.00000000E-01  0.00000000E+00
                       5.00000000E-01  5.00000000E-01  0.00000000E+00
                       0.00000000E+00  0.00000000E+00  1.66666667E-01
                       1.66666667E-01  0.00000000E+00  1.66666667E-01
                       3.33333333E-01  0.00000000E+00  1.66666667E-01
                       5.00000000E-01  0.00000000E+00  1.66666667E-01
                      -3.33333333E-01  0.00000000E+00  1.66666667E-01
                      -1.66666667E-01  0.00000000E+00  1.66666667E-01
                       0.00000000E+00  1.66666667E-01  1.66666667E-01
                       1.66666667E-01  1.66666667E-01  1.66666667E-01
                       3.33333333E-01  1.66666667E-01  1.66666667E-01
                       5.00000000E-01  1.66666667E-01  1.66666667E-01
                      -3.33333333E-01  1.66666667E-01  1.66666667E-01
                      -1.66666667E-01  1.66666667E-01  1.66666667E-01
                       0.00000000E+00  3.33333333E-01  1.66666667E-01
                       1.66666667E-01  3.33333333E-01  1.66666667E-01
                       3.33333333E-01  3.33333333E-01  1.66666667E-01
                       5.00000000E-01  3.33333333E-01  1.66666667E-01
                      -3.33333333E-01  3.33333333E-01  1.66666667E-01
                      -1.66666667E-01  3.33333333E-01  1.66666667E-01
                       0.00000000E+00  5.00000000E-01  1.66666667E-01
                       1.66666667E-01  5.00000000E-01  1.66666667E-01
                       3.33333333E-01  5.00000000E-01  1.66666667E-01
                       5.00000000E-01  5.00000000E-01  1.66666667E-01
                      -3.33333333E-01  5.00000000E-01  1.66666667E-01
                      -1.66666667E-01  5.00000000E-01  1.66666667E-01
                       0.00000000E+00 -3.33333333E-01  1.66666667E-01
                       1.66666667E-01 -3.33333333E-01  1.66666667E-01
                       3.33333333E-01 -3.33333333E-01  1.66666667E-01
                       5.00000000E-01 -3.33333333E-01  1.66666667E-01
                      -3.33333333E-01 -3.33333333E-01  1.66666667E-01
                      -1.66666667E-01 -3.33333333E-01  1.66666667E-01
                       outvar_i_n : Printing only first  50 k-points.
           kptopt           2
         kptrlatt        6    0    0      0    6    0      0    0    6
          kptrlen      5.75486009E+01
P           mkmem           4
            natom          12
            nband          50
            ngfft          45      45      45
             nkpt         112
            nstep         100
             nsym           1
           ntypat           2
              occ      2.000000  2.000000  2.000000  2.000000  2.000000  2.000000
                       2.000000  2.000000  2.000000  2.000000  2.000000  2.000000
                       2.000000  2.000000  2.000000  2.000000  2.000000  2.000000
                       2.000000  2.000000  2.000000  2.000000  2.000000  2.000000
                       2.000000  2.000000  2.000000  2.000000  2.000000  2.000000
                       2.000000  2.000000  2.000000  2.000000  2.000000  2.000000
                       2.000000  2.000000  2.000000  2.000000  2.000000  2.000000
                       2.000000  2.000000  2.000000  2.000000  2.000000  2.000000
                       0.000000  0.000000
        pawecutdg      2.50000000E+01 Hartree
         pawxcdev           0
          spgroup           1
           strten     -2.9110117302E-04 -3.3969227696E-04 -5.6797853481E-04
                       4.3657295191E-07 -1.5048379494E-08  2.7130208936E-07
        symmorphi           0
           tolmxf      1.00000000E-05
           tolvrs      1.00000000E-18
           tsmear      4.00000000E-02 Hartree
            typat      1  1  1  1  2  2  2  2  2  2  2  2
              wtk        0.00463    0.00926    0.00926    0.00463    0.00926    0.00926
                         0.00926    0.00926    0.00926    0.00926    0.00926    0.00926
                         0.00926    0.00926    0.00926    0.00926    0.00463    0.00926
                         0.00926    0.00463    0.00926    0.00926    0.00926    0.00926
                         0.00926    0.00926    0.00926    0.00926    0.00926    0.00926
                         0.00926    0.00926    0.00926    0.00926    0.00926    0.00926
                         0.00926    0.00926    0.00926    0.00926    0.00926    0.00926
                         0.00926    0.00926    0.00926    0.00926    0.00926    0.00926
                         0.00926    0.00926
                       outvars : Printing only first  50 k-points.
           xangst     -8.9989820640E-05  3.1976078400E-05 -1.5525096643E-01
                      -9.0649644480E-05  2.5379101786E+00  2.3825896769E+00
                       2.3715040781E+00  3.1925322720E-05  2.3825112086E+00
                       2.3715043826E+00  2.5379102294E+00 -1.5517259966E-01
                       9.7832705052E-01  1.2544636828E+00  3.5836243781E+00
                       9.7895530432E-01  3.7913143874E+00  3.7190136318E+00
                       1.3930083157E+00  3.7910182280E+00  1.1815923827E+00
                       1.3933314263E+00  1.2543407526E+00  1.0461804411E+00
                       4.0925382835E+00  6.9942159433E-01  1.7206299871E+00
                       4.0924204288E+00  3.2381388390E+00  5.0722754790E-01
                       3.3553164472E+00  3.2381843669E+00  3.0453515602E+00
                       3.3544829374E+00  6.9929389304E-01  4.2587767380E+00
            xcart     -1.7005611576E-04  6.0426030980E-05 -2.9338180841E-01
                      -1.7130300211E-04  4.7959551875E+00  4.5024419764E+00
                       4.4814932306E+00  6.0330116645E-05  4.5022936928E+00
                       4.4814938061E+00  4.7959552834E+00 -2.9323371668E-01
                       1.8487701939E+00  2.3705928042E+00  6.7720686377E+00
                       1.8499574215E+00  7.1645458759E+00  7.0279172486E+00
                       2.6324042175E+00  7.1639862157E+00  2.2328860039E+00
                       2.6330148081E+00  2.3703604997E+00  1.9769945194E+00
                       7.7337765441E+00  1.3217152647E+00  3.2515194517E+00
                       7.7335538310E+00  6.1191955860E+00  9.5852115259E-01
                       6.3406291744E+00  6.1192816212E+00  5.7548804271E+00
                       6.3390540692E+00  1.3214739442E+00  8.0479216959E+00
             xred     -1.7730000000E-05  6.3000000000E-06 -3.0587900000E-02
                      -1.7860000000E-05  5.0002486000E-01  4.6942326000E-01
                       4.6723915000E-01  6.2900000000E-06  4.6940780000E-01
                       4.6723921000E-01  5.0002487000E-01 -3.0572460000E-02
                       1.9275223000E-01  2.4715730000E-01  7.0605386000E-01
                       1.9287601000E-01  7.4697342000E-01  7.3272856000E-01
                       2.7445368000E-01  7.4691507000E-01  2.3280003000E-01
                       2.7451734000E-01  2.4713308000E-01  2.0612086000E-01
                       8.0632124000E-01  1.3780164000E-01  3.3900245000E-01
                       8.0629802000E-01  6.3798551000E-01  9.9935130000E-02
                       6.6107211000E-01  6.3799448000E-01  6.0000212000E-01
                       6.6090789000E-01  1.3777648000E-01  8.3907392000E-01
            znucl       72.00000    8.00000
 
================================================================================


- Timing analysis has been suppressed with timopt=0



================================================================================

 Suggested references for the acknowledgment of ABINIT usage.

 The users of ABINIT have little formal obligations with respect to the ABINIT group
 (those specified in the GNU General Public License, http://www.gnu.org/copyleft/gpl.txt).
 However, it is common practice in the scientific literature,
 to acknowledge the efforts of people that have made the research possible.
 In this spirit, please find below suggested citations of work written by ABINIT developers,
 corresponding to implementations inside of ABINIT that you have used in the present run.
 Note also that it will be of great value to readers of publications presenting these results,
 to read papers enabling them to understand the theoretical formalism and details
 of the ABINIT implementation.
 For information on why they are suggested, see also https://docs.abinit.org/theory/acknowledgments.
-
- [1] Specification of an extensible and portable file format for electronic structure and crystallographic data
- X. Gonze, C.-O. Almbladh, A. Cucca, D. Caliste, C. Freysoldt, M. Marques, V. Olevano, Y. Pouillon, M.J. Verstraete,
- Comput. Material Science 43, 1056 (2008).
- Comment: to be cited in case the ETSF_IO file format is used, i.e. iomode=3.
- DOI and bibtex: see https://docs.abinit.org/theory/bibliography/#gonze2008
-
- [2] The Abinit project: Impact, environment and recent developments.
- Computer Phys. Comm. 248, 107042 (2020).
- X.Gonze, B. Amadon, G. Antonius, F.Arnardi, L.Baguet, J.-M.Beuken,
- J.Bieder, F.Bottin, J.Bouchet, E.Bousquet, N.Brouwer, F.Bruneval,
- G.Brunin, T.Cavignac, J.-B. Charraud, Wei Chen, M.Cote, S.Cottenier,
- J.Denier, G.Geneste, Ph.Ghosez, M.Giantomassi, Y.Gillet, O.Gingras,
- D.R.Hamann, G.Hautier, Xu He, N.Helbig, N.Holzwarth, Y.Jia, F.Jollet,
- W.Lafargue-Dit-Hauret, K.Lejaeghere, M.A.L.Marques, A.Martin, C.Martins,
- H.P.C. Miranda, F.Naccarato, K. Persson, G.Petretto, V.Planes, Y.Pouillon,
- S.Prokhorenko, F.Ricci, G.-M.Rignanese, A.H.Romero, M.M.Schmitt, M.Torrent,
- M.J.van Setten, B.Van Troeye, M.J.Verstraete, G.Zerah and J.W.Zwanzig
- Comment: the fifth generic paper describing the ABINIT project.
- Note that a version of this paper, that is not formatted for Computer Phys. Comm. 
- is available at https://www.abinit.org/sites/default/files/ABINIT20.pdf .
- The licence allows the authors to put it on the Web.
- DOI and bibtex: see https://docs.abinit.org/theory/bibliography/#gonze2020
-
- [3] Optimized norm-conserving Vanderbilt pseudopotentials.
- D.R. Hamann, Phys. Rev. B 88, 085117 (2013).
- Comment: Some pseudopotential generated using the ONCVPSP code were used.
- DOI and bibtex: see https://docs.abinit.org/theory/bibliography/#hamann2013
-
- [4] ABINIT: Overview, and focus on selected capabilities
- J. Chem. Phys. 152, 124102 (2020).
- A. Romero, D.C. Allan, B. Amadon, G. Antonius, T. Applencourt, L.Baguet,
- J.Bieder, F.Bottin, J.Bouchet, E.Bousquet, F.Bruneval,
- G.Brunin, D.Caliste, M.Cote,
- J.Denier, C. Dreyer, Ph.Ghosez, M.Giantomassi, Y.Gillet, O.Gingras,
- D.R.Hamann, G.Hautier, F.Jollet, G. Jomard,
- A.Martin, 
- H.P.C. Miranda, F.Naccarato, G.Petretto, N.A. Pike, V.Planes,
- S.Prokhorenko, T. Rangel, F.Ricci, G.-M.Rignanese, M.Royo, M.Stengel, M.Torrent,
- M.J.van Setten, B.Van Troeye, M.J.Verstraete, J.Wiktor, J.W.Zwanziger, and X.Gonze.
- Comment: a global overview of ABINIT, with focus on selected capabilities .
- Note that a version of this paper, that is not formatted for J. Chem. Phys 
- is available at https://www.abinit.org/sites/default/files/ABINIT20_JPC.pdf .
- The licence allows the authors to put it on the Web.
- DOI and bibtex: see https://docs.abinit.org/theory/bibliography/#romero2020
-
- [5] Recent developments in the ABINIT software package.
- Computer Phys. Comm. 205, 106 (2016).
- X.Gonze, F.Jollet, F.Abreu Araujo, D.Adams, B.Amadon, T.Applencourt,
- C.Audouze, J.-M.Beuken, J.Bieder, A.Bokhanchuk, E.Bousquet, F.Bruneval
- D.Caliste, M.Cote, F.Dahm, F.Da Pieve, M.Delaveau, M.Di Gennaro,
- B.Dorado, C.Espejo, G.Geneste, L.Genovese, A.Gerossier, M.Giantomassi,
- Y.Gillet, D.R.Hamann, L.He, G.Jomard, J.Laflamme Janssen, S.Le Roux,
- A.Levitt, A.Lherbier, F.Liu, I.Lukacevic, A.Martin, C.Martins,
- M.J.T.Oliveira, S.Ponce, Y.Pouillon, T.Rangel, G.-M.Rignanese,
- A.H.Romero, B.Rousseau, O.Rubel, A.A.Shukri, M.Stankovski, M.Torrent,
- M.J.Van Setten, B.Van Troeye, M.J.Verstraete, D.Waroquier, J.Wiktor,
- B.Xu, A.Zhou, J.W.Zwanziger.
- Comment: the fourth generic paper describing the ABINIT project.
- Note that a version of this paper, that is not formatted for Computer Phys. Comm. 
- is available at https://www.abinit.org/sites/default/files/ABINIT16.pdf .
- The licence allows the authors to put it on the Web.
- DOI and bibtex: see https://docs.abinit.org/theory/bibliography/#gonze2016
-
- Proc.   0 individual time (sec): cpu=        128.3  wall=        132.5
 
================================================================================
 
 Calculation completed.
.Delivered   0 WARNINGs and   0 COMMENTs to log file.
+Overall time at end (sec) : cpu=       4670.5  wall=       4768.2
