
.Version 9.4.1 of ABINIT 
.(MPI version, prepared for a x86_64_linux_intel19.0 computer) 

.Copyright (C) 1998-2021 ABINIT group . 
 ABINIT comes with ABSOLUTELY NO WARRANTY.
 It is free software, and you are welcome to redistribute it
 under certain conditions (GNU General Public License,
 see ~abinit/COPYING or http://www.gnu.org/copyleft/gpl.txt).

 ABINIT is a project of the Universite Catholique de Louvain,
 Corning Inc. and other collaborators, see ~abinit/doc/developers/contributors.txt .
 Please read https://docs.abinit.org/theory/acknowledgments for suggested
 acknowledgments of the ABINIT effort.
 For more information, see https://www.abinit.org .

.Starting date : Wed 26 May 2021.
- ( at 18h54 )
  
- input  file    -> /workspace/jiahaoz/HZO/LG_Model/GroundP/NEW_iteration/Hisymm/dfpt0
- output file    -> /workspace/jiahaoz/HZO/LG_Model/GroundP/NEW_iteration/Hisymm/dfpt0.abo
- root for input  files -> i
- root for output files -> o
 
 
 DATASET    1 : the unit cell is not primitive
================================================================================
 Values of the parameters that define the memory need for DATASET  1.
     intxc =       0    ionmov =       0      iscf =       7    lmnmax =       8
     lnmax =       8     mgfft =      48  mpssoang =       4    mqgrid =    3001
     natom =      12  nloc_mem =       1    nspden =       1   nspinor =       1
    nsppol =       1      nsym =      16    n1xccc =    2501    ntypat =       3
    occopt =       1   xclevel =       2
-    mband =          49        mffmem =           1         mkmem =           1
       mpw =        6126          nfft =      110592          nkpt =          36
================================================================================
P This job should need less than                      42.177 Mbytes of memory.
  Rough estimation (10% accuracy) of disk space for files :
_ WF disk file :    164.893 Mbytes ; DEN or POT disk file :      0.846 Mbytes.
================================================================================
 
 
 DATASET    2 : the unit cell is not primitive
================================================================================
 Values of the parameters that define the memory need for DATASET  2.
     intxc =       0    ionmov =       0      iscf =      -2    lmnmax =       8
     lnmax =       8     mgfft =      48  mpssoang =       4    mqgrid =    3001
     natom =      12  nloc_mem =       1    nspden =       1   nspinor =       1
    nsppol =       1      nsym =      16    n1xccc =    2501    ntypat =       3
    occopt =       1   xclevel =       2
-    mband =          49        mffmem =           1         mkmem =           1
       mpw =        6126          nfft =      110592          nkpt =          36
================================================================================
P This job should need less than                      28.155 Mbytes of memory.
  Rough estimation (10% accuracy) of disk space for files :
_ WF disk file :    164.893 Mbytes ; DEN or POT disk file :      0.846 Mbytes.
================================================================================
 
 
 DATASET    3 : the unit cell is not primitive
================================================================================
 Values of the parameters that define the memory need for DATASET  3 (RF).
     intxc =       0      iscf =       7    lmnmax =       8     lnmax =       8
     mgfft =      48  mpssoang =       4    mqgrid =    3001     natom =      12
  nloc_mem =       1    nspden =       1   nspinor =       1    nsppol =       1
      nsym =      16    n1xccc =    2501    ntypat =       3    occopt =       1
   xclevel =       2
-    mband =          49        mffmem =           1         mkmem =           1
-   mkqmem =           1        mk1mem =           1           mpw =        6126
      nfft =      110592          nkpt =          36
================================================================================
P This job should need less than                      44.917 Mbytes of memory.
  Rough estimation (10% accuracy) of disk space for files :
_ WF disk file :    164.893 Mbytes ; DEN or POT disk file :      0.846 Mbytes.
================================================================================
 
--------------------------------------------------------------------------------
------------- Echo of variables that govern the present computation ------------
--------------------------------------------------------------------------------
-
- outvars: echo of selected default values                                      
-   iomode0 =  3 , fftalg0 =512 , wfoptalg0 =  0
-
- outvars: echo of global parameters not present in the input file              
-  max_nthreads =    0
-
 -outvars: echo values of preprocessed input variables --------
            acell      9.5900000000E+00  9.5900000000E+00  9.5900000000E+00 Bohr
              amu      1.78490000E+02  9.12240000E+01  1.59994000E+01
         berryopt1          0
         berryopt2         -2
         berryopt3          0
          chkprim           0
          dilatmx      1.05000000E+00
             ecut      2.50000000E+01 Hartree
           ecutsm      5.00000000E-01 Hartree
-          fftalg         512
           getddk1          0
           getddk2          0
           getddk3          2
           getden1          0
           getden2          1
           getden3          0
           getwfk1          0
           getwfk2          1
           getwfk3          2
             iscf1          7
             iscf2         -2
             iscf3          7
           istwfk1       2    0    3    0    0    0    0    6    0    7
                         0    0    0    0    0    0    0    0    0    0
                         0    0    0    0    0    0    4    0    5    0
                         0    0    0    8    0    9
           istwfk2       1    0    1    0    0    0    0    1    0    1
                         0    0    0    0    0    0    0    0    0    0
                         0    0    0    0    0    0    1    0    1    0
                         0    0    0    1    0    1
           istwfk3       1    0    1    0    0    0    0    1    0    1
                         0    0    0    0    0    0    0    0    0    0
                         0    0    0    0    0    0    1    0    1    0
                         0    0    0    1    0    1
              ixc          11
           jdtset        1    2    3
              kpt      0.00000000E+00  0.00000000E+00  0.00000000E+00
                       2.50000000E-01  0.00000000E+00  0.00000000E+00
                       5.00000000E-01  0.00000000E+00  0.00000000E+00
                       0.00000000E+00  2.50000000E-01  0.00000000E+00
                       2.50000000E-01  2.50000000E-01  0.00000000E+00
                       5.00000000E-01  2.50000000E-01  0.00000000E+00
                      -2.50000000E-01  2.50000000E-01  0.00000000E+00
                       0.00000000E+00  5.00000000E-01  0.00000000E+00
                       2.50000000E-01  5.00000000E-01  0.00000000E+00
                       5.00000000E-01  5.00000000E-01  0.00000000E+00
                       0.00000000E+00  0.00000000E+00  2.50000000E-01
                       2.50000000E-01  0.00000000E+00  2.50000000E-01
                       5.00000000E-01  0.00000000E+00  2.50000000E-01
                      -2.50000000E-01  0.00000000E+00  2.50000000E-01
                       0.00000000E+00  2.50000000E-01  2.50000000E-01
                       2.50000000E-01  2.50000000E-01  2.50000000E-01
                       5.00000000E-01  2.50000000E-01  2.50000000E-01
                      -2.50000000E-01  2.50000000E-01  2.50000000E-01
                       0.00000000E+00  5.00000000E-01  2.50000000E-01
                       2.50000000E-01  5.00000000E-01  2.50000000E-01
                       5.00000000E-01  5.00000000E-01  2.50000000E-01
                      -2.50000000E-01  5.00000000E-01  2.50000000E-01
                       0.00000000E+00 -2.50000000E-01  2.50000000E-01
                       2.50000000E-01 -2.50000000E-01  2.50000000E-01
                       5.00000000E-01 -2.50000000E-01  2.50000000E-01
                      -2.50000000E-01 -2.50000000E-01  2.50000000E-01
                       0.00000000E+00  0.00000000E+00  5.00000000E-01
                       2.50000000E-01  0.00000000E+00  5.00000000E-01
                       5.00000000E-01  0.00000000E+00  5.00000000E-01
                       0.00000000E+00  2.50000000E-01  5.00000000E-01
                       2.50000000E-01  2.50000000E-01  5.00000000E-01
                       5.00000000E-01  2.50000000E-01  5.00000000E-01
                      -2.50000000E-01  2.50000000E-01  5.00000000E-01
                       0.00000000E+00  5.00000000E-01  5.00000000E-01
                       2.50000000E-01  5.00000000E-01  5.00000000E-01
                       5.00000000E-01  5.00000000E-01  5.00000000E-01
           kptopt           2
         kptrlatt        4    0    0      0    4    0      0    0    4
          kptrlen      3.83600000E+01
P           mkmem           1
P          mkqmem           1
P          mk1mem           1
            natom          12
            nband          49
           nbdbuf1          0
           nbdbuf2          2
           nbdbuf3          0
           ndtset           3
            ngfft          48      48      48
             nkpt          36
            nstep1        100
            nstep2         30
            nstep3        100
             nsym          16
           ntypat           3
              occ      2.000000  2.000000  2.000000  2.000000  2.000000  2.000000
                       2.000000  2.000000  2.000000  2.000000  2.000000  2.000000
                       2.000000  2.000000  2.000000  2.000000  2.000000  2.000000
                       2.000000  2.000000  2.000000  2.000000  2.000000  2.000000
                       2.000000  2.000000  2.000000  2.000000  2.000000  2.000000
                       2.000000  2.000000  2.000000  2.000000  2.000000  2.000000
                       2.000000  2.000000  2.000000  2.000000  2.000000  2.000000
                       2.000000  2.000000  2.000000  2.000000  2.000000  2.000000
                       0.000000
        optdriver1          0
        optdriver2          0
        optdriver3          1
        pawecutdg      3.00000000E+01 Hartree
         pawxcdev           0
           prtden1          1
           prtden2          0
           prtden3          0
           prteig           0
            prtwf1          1
            prtwf2          1
            prtwf3          0
          rfatpol1          1       1
          rfatpol2          1       1
          rfatpol3          1      12
            rfdir1          0       0       0
            rfdir2          1       1       1
            rfdir3          1       1       1
           rfelfd1          0
           rfelfd2          0
           rfelfd3          3
           rfphon1          0
           rfphon2          0
           rfphon3          1
           rfstrs1          0
           rfstrs2          0
           rfstrs3          3
        symmorphi           0
           symrel      1  0  0   0  1  0   0  0  1      -1  0  0   0 -1  0   0  0 -1
                      -1  0  0   0  1  0   0  0 -1       1  0  0   0 -1  0   0  0  1
                      -1  0  0   0 -1  0   0  0  1       1  0  0   0  1  0   0  0 -1
                       1  0  0   0 -1  0   0  0 -1      -1  0  0   0  1  0   0  0  1
                       0  1  0   1  0  0   0  0  1       0 -1  0  -1  0  0   0  0 -1
                       0 -1  0   1  0  0   0  0 -1       0  1  0  -1  0  0   0  0  1
                       0 -1  0  -1  0  0   0  0  1       0  1  0   1  0  0   0  0 -1
                       0  1  0  -1  0  0   0  0 -1       0 -1  0   1  0  0   0  0  1
           toldfe1     1.00000000E-13 Hartree
           toldfe2     0.00000000E+00 Hartree
           toldfe3     0.00000000E+00 Hartree
           tolvrs1     0.00000000E+00
           tolvrs2     0.00000000E+00
           tolvrs3     1.00000000E-13
           tolwfr1     0.00000000E+00
           tolwfr2     1.00000000E-22
           tolwfr3     0.00000000E+00
            typat      1  1  2  2  3  3  3  3  3  3  3  3
              wtk        0.01563    0.03125    0.01563    0.03125    0.03125    0.03125
                         0.03125    0.01563    0.03125    0.01563    0.03125    0.03125
                         0.03125    0.03125    0.03125    0.03125    0.03125    0.03125
                         0.03125    0.03125    0.03125    0.03125    0.03125    0.03125
                         0.03125    0.03125    0.01563    0.03125    0.01563    0.03125
                         0.03125    0.03125    0.03125    0.01563    0.03125    0.01563
           xangst      0.0000000000E+00  0.0000000000E+00  0.0000000000E+00
                       2.5374047152E+00  2.5374047152E+00  0.0000000000E+00
                       0.0000000000E+00  2.5374047152E+00  2.5374047152E+00
                       2.5374047152E+00  0.0000000000E+00  2.5374047152E+00
                       1.2687023576E+00  1.2687023576E+00  1.2687023576E+00
                       1.2687023576E+00  1.2687023576E+00  3.8061070728E+00
                       1.2687023576E+00  3.8061070728E+00  1.2687023576E+00
                       1.2687023576E+00  3.8061070728E+00  3.8061070728E+00
                       3.8061070728E+00  1.2687023576E+00  1.2687023576E+00
                       3.8061070728E+00  1.2687023576E+00  3.8061070728E+00
                       3.8061070728E+00  3.8061070728E+00  1.2687023576E+00
                       3.8061070728E+00  3.8061070728E+00  3.8061070728E+00
            xcart      0.0000000000E+00  0.0000000000E+00  0.0000000000E+00
                       4.7950000000E+00  4.7950000000E+00  0.0000000000E+00
                       0.0000000000E+00  4.7950000000E+00  4.7950000000E+00
                       4.7950000000E+00  0.0000000000E+00  4.7950000000E+00
                       2.3975000000E+00  2.3975000000E+00  2.3975000000E+00
                       2.3975000000E+00  2.3975000000E+00  7.1925000000E+00
                       2.3975000000E+00  7.1925000000E+00  2.3975000000E+00
                       2.3975000000E+00  7.1925000000E+00  7.1925000000E+00
                       7.1925000000E+00  2.3975000000E+00  2.3975000000E+00
                       7.1925000000E+00  2.3975000000E+00  7.1925000000E+00
                       7.1925000000E+00  7.1925000000E+00  2.3975000000E+00
                       7.1925000000E+00  7.1925000000E+00  7.1925000000E+00
             xred      0.0000000000E+00  0.0000000000E+00  0.0000000000E+00
                       5.0000000000E-01  5.0000000000E-01  0.0000000000E+00
                       0.0000000000E+00  5.0000000000E-01  5.0000000000E-01
                       5.0000000000E-01  0.0000000000E+00  5.0000000000E-01
                       2.5000000000E-01  2.5000000000E-01  2.5000000000E-01
                       2.5000000000E-01  2.5000000000E-01  7.5000000000E-01
                       2.5000000000E-01  7.5000000000E-01  2.5000000000E-01
                       2.5000000000E-01  7.5000000000E-01  7.5000000000E-01
                       7.5000000000E-01  2.5000000000E-01  2.5000000000E-01
                       7.5000000000E-01  2.5000000000E-01  7.5000000000E-01
                       7.5000000000E-01  7.5000000000E-01  2.5000000000E-01
                       7.5000000000E-01  7.5000000000E-01  7.5000000000E-01
            znucl       72.00000   40.00000    8.00000
 
================================================================================
 
 chkinp: Checking input parameters for consistency, jdtset=   1.
 
 chkinp: Checking input parameters for consistency, jdtset=   2.
 
 chkinp: Checking input parameters for consistency, jdtset=   3.
 
================================================================================
== DATASET  1 ==================================================================
-   mpi_nproc: 36, omp_nthreads: -1 (-1 if OMP is not activated)
 

--- !DatasetInfo
iteration_state: {dtset: 1, }
dimensions: {natom: 12, nkpt: 36, mband: 49, nsppol: 1, nspinor: 1, nspden: 1, mpw: 6126, }
cutoff_energies: {ecut:  25.0, pawecutdg:  30.0, }
electrons: {nelect:   9.60000000E+01, charge:   0.00000000E+00, occopt:   1.00000000E+00, tsmear:   1.00000000E-02, }
meta: {optdriver: 0, ionmov: 0, optcell: 0, iscf: 7, paral_kgb: 0, }
...

 Exchange-correlation functional for the present dataset will be:
  GGA: Perdew-Burke-Ernzerhof functional - ixc=11
 Citation for XC functional:
  J.P.Perdew, K.Burke, M.Ernzerhof, PRL 77, 3865 (1996)
 
 Real(R)+Recip(G) space primitive vectors, cartesian coordinates (Bohr,Bohr^-1):
 R(1)=  9.5900000  0.0000000  0.0000000  G(1)=  0.1042753  0.0000000  0.0000000
 R(2)=  0.0000000  9.5900000  0.0000000  G(2)=  0.0000000  0.1042753  0.0000000
 R(3)=  0.0000000  0.0000000  9.5900000  G(3)=  0.0000000  0.0000000  0.1042753
 Unit cell volume ucvol=  8.8197408E+02 bohr^3
 Angles (23,13,12)=  9.00000000E+01  9.00000000E+01  9.00000000E+01 degrees
 
 getcut: wavevector=  0.0000  0.0000  0.0000  ngfft=  48  48  48
         ecut(hartree)=     27.563   => boxcut(ratio)=   2.11786
 
--- Pseudopotential description ------------------------------------------------
- pspini: atom type   1  psp file is /workspace/jiahaoz/PACKAGE_INSTALL/abinit-9.4.1/pbe_s_sr/Hf.psp8
- pspatm: opening atomic psp file    /workspace/jiahaoz/PACKAGE_INSTALL/abinit-9.4.1/pbe_s_sr/Hf.psp8
- Hf    ONCVPSP  r_core=  1.72  1.72  1.72  2.43
- 72.00000  12.00000    160625                znucl, zion, pspdat
    8   11    3    4       600   0.00000      pspcod,pspxc,lmax,lloc,mmax,r2well
    5.99000000000000    5.40000000000000    0.00000000000000   rchrg,fchrg,qchrg
     nproj     2     2     2     2
     extension_switch     1
  pspatm : epsatm=   21.98649506
         --- l  ekb(1:nproj) -->
             0    5.812335   -0.521211
             1   -3.038329    2.466565
             2    2.060039    0.471534
             3    9.947446    0.353012
 pspatm: atomic psp has been read  and splines computed
 
- pspini: atom type   2  psp file is /workspace/jiahaoz/PACKAGE_INSTALL/abinit-9.4.1/pbe_s_sr/Zr.psp8
- pspatm: opening atomic psp file    /workspace/jiahaoz/PACKAGE_INSTALL/abinit-9.4.1/pbe_s_sr/Zr.psp8
- Zr    ONCVPSP  r_core=  1.57  1.57  1.51
- 40.00000  12.00000    150708                znucl, zion, pspdat
    8   11    2    4       600   0.00000      pspcod,pspxc,lmax,lloc,mmax,r2well
    5.99000000000000    5.00000000000000    0.00000000000000   rchrg,fchrg,qchrg
     nproj     2     2     2
     extension_switch     1
  pspatm : epsatm=   18.79952966
         --- l  ekb(1:nproj) -->
             0   10.640382    0.896979
             1    5.578784    0.693718
             2    3.567950    0.580498
 pspatm: atomic psp has been read  and splines computed
 
- pspini: atom type   3  psp file is /workspace/jiahaoz/PACKAGE_INSTALL/abinit-9.4.1/pbe_s_sr/O.psp8
- pspatm: opening atomic psp file    /workspace/jiahaoz/PACKAGE_INSTALL/abinit-9.4.1/pbe_s_sr/O.psp8
- O     ONCVPSP  r_core=  1.36  1.46  1.26
-  8.00000   6.00000    151103                znucl, zion, pspdat
    8   11    2    4       600   0.00000      pspcod,pspxc,lmax,lloc,mmax,r2well
    5.99000000000000    4.00000000000000    0.00000000000000   rchrg,fchrg,qchrg
     nproj     2     2     1
     extension_switch     1
  pspatm : epsatm=    6.19401560
         --- l  ekb(1:nproj) -->
             0    5.257212    0.704241
             1   -5.135443   -1.451781
             2   -4.371486
 pspatm: atomic psp has been read  and splines computed
 
   1.25879207E+04                                ecore*ucvol(ha*bohr**3)
--------------------------------------------------------------------------------
 
_setup2: Arith. and geom. avg. npw (full set) are    6100.484    6100.445
 
================================================================================

--- !BeginCycle
iteration_state: {dtset: 1, }
solver: {iscf: 7, nstep: 100, nline: 4, wfoptalg: 0, }
tolerances: {toldfe: 1.00E-13, }
...
 
     iter   Etot(hartree)      deltaE(h)  residm     vres2
 ETOT  1  -345.87844654671    -3.459E+02 2.754E-01 1.625E+03
 ETOT  2  -346.01339794076    -1.350E-01 3.113E-02 1.763E+03
 ETOT  3  -346.98634688695    -9.729E-01 8.665E-03 8.309E+01
 ETOT  4  -347.02355431838    -3.721E-02 1.510E-03 3.717E+00
 ETOT  5  -347.02483748913    -1.283E-03 1.935E-03 5.296E-01
 ETOT  6  -347.02502833975    -1.909E-04 9.160E-04 2.551E-02
 ETOT  7  -347.02503436602    -6.026E-06 1.808E-03 1.684E-04
 ETOT  8  -347.02503445333    -8.731E-08 6.182E-04 3.953E-05
 ETOT  9  -347.02503446195    -8.616E-09 1.170E-03 2.003E-06
 ETOT 10  -347.02503446241    -4.649E-10 3.494E-04 1.044E-07
 ETOT 11  -347.02503446248    -6.224E-11 7.163E-04 7.559E-09
 ETOT 12  -347.02503446248    -6.366E-12 2.097E-04 1.163E-10
 ETOT 13  -347.02503446248     9.663E-13 5.250E-04 2.875E-11
 ETOT 14  -347.02503446248     2.046E-12 1.522E-04 3.878E-12
 ETOT 15  -347.02503446248     3.070E-12 3.821E-04 2.467E-14
 ETOT 16  -347.02503446248    -2.331E-12 1.109E-04 6.509E-16
 ETOT 17  -347.02503446248    -1.535E-12 2.781E-04 7.638E-17
 ETOT 18  -347.02503446248    -3.581E-12 8.098E-05 1.426E-17
 ETOT 19  -347.02503446248    -5.116E-13 2.027E-04 5.263E-19
 ETOT 20  -347.02503446248     2.728E-12 5.925E-05 5.153E-20
 ETOT 21  -347.02503446248    -1.705E-13 1.479E-04 8.463E-21
 ETOT 22  -347.02503446248    -3.411E-13 4.341E-05 4.216E-22
 ETOT 23  -347.02503446248    -5.684E-14 1.082E-04 9.934E-23
 ETOT 24  -347.02503446248     2.274E-13 3.186E-05 7.048E-23
 ETOT 25  -347.02503446248     0.000E+00 7.942E-05 5.358E-23
 ETOT 26  -347.02503446248    -5.684E-14 2.655E-05 4.671E-23
 
 At SCF step   26, etot is converged : 
  for the second time, diff in etot=  5.684E-14 < toldfe=  1.000E-13
 
 Cartesian components of stress tensor (hartree/bohr^3)
  sigma(1 1)= -1.42578912E-04  sigma(3 2)=  0.00000000E+00
  sigma(2 2)= -1.42578912E-04  sigma(3 1)=  0.00000000E+00
  sigma(3 3)= -1.41900368E-04  sigma(2 1)=  0.00000000E+00
 

--- !ResultsGS
iteration_state: {dtset: 1, }
comment   : Summary of ground state results
lattice_vectors:
- [  9.5900000,   0.0000000,   0.0000000, ]
- [  0.0000000,   9.5900000,   0.0000000, ]
- [  0.0000000,   0.0000000,   9.5900000, ]
lattice_lengths: [   9.59000,    9.59000,    9.59000, ]
lattice_angles: [ 90.000,  90.000,  90.000, ] # degrees, (23, 13, 12)
lattice_volume:   8.8197408E+02
convergence: {deltae: -5.684E-14, res2:  4.671E-23, residm:  2.655E-05, diffor: null, }
etotal    :  -3.47025034E+02
entropy   :   0.00000000E+00
fermie    :   3.06846608E-01
cartesian_stress_tensor: # hartree/bohr^3
- [ -1.42578912E-04,   0.00000000E+00,   0.00000000E+00, ]
- [  0.00000000E+00,  -1.42578912E-04,   0.00000000E+00, ]
- [  0.00000000E+00,   0.00000000E+00,  -1.41900368E-04, ]
pressure_GPa:   4.1882E+00
xred      :
- [  0.0000E+00,   0.0000E+00,   0.0000E+00, Hf]
- [  5.0000E-01,   5.0000E-01,   0.0000E+00, Hf]
- [  0.0000E+00,   5.0000E-01,   5.0000E-01, Zr]
- [  5.0000E-01,   0.0000E+00,   5.0000E-01, Zr]
- [  2.5000E-01,   2.5000E-01,   2.5000E-01,  O]
- [  2.5000E-01,   2.5000E-01,   7.5000E-01,  O]
- [  2.5000E-01,   7.5000E-01,   2.5000E-01,  O]
- [  2.5000E-01,   7.5000E-01,   7.5000E-01,  O]
- [  7.5000E-01,   2.5000E-01,   2.5000E-01,  O]
- [  7.5000E-01,   2.5000E-01,   7.5000E-01,  O]
- [  7.5000E-01,   7.5000E-01,   2.5000E-01,  O]
- [  7.5000E-01,   7.5000E-01,   7.5000E-01,  O]
cartesian_forces: # hartree/bohr
- [ -3.28692044E-32,   3.28692044E-32,  -2.89120579E-19, ]
- [ -3.28692044E-32,   3.28692044E-32,  -2.89120579E-19, ]
- [ -3.28692044E-32,   3.28692044E-32,  -2.89120579E-19, ]
- [ -3.28692044E-32,   3.28692044E-32,  -2.89120579E-19, ]
- [  1.74276761E-15,   1.74276761E-15,  -3.56599850E-03, ]
- [  1.74276761E-15,   1.74276761E-15,   3.56599850E-03, ]
- [  1.74276761E-15,  -1.74276761E-15,  -3.56599850E-03, ]
- [  1.74276761E-15,  -1.74276761E-15,   3.56599850E-03, ]
- [ -1.74276761E-15,   1.74276761E-15,  -3.56599850E-03, ]
- [ -1.74276761E-15,   1.74276761E-15,   3.56599850E-03, ]
- [ -1.74276761E-15,  -1.74276761E-15,  -3.56599850E-03, ]
- [ -1.74276761E-15,  -1.74276761E-15,   3.56599850E-03, ]
force_length_stats: {min:   2.89120579E-19, max:   3.56599850E-03, mean:   2.37733233E-03, }
...

 Integrated electronic density in atomic spheres:
 ------------------------------------------------
 Atom  Sphere_radius  Integrated_density
    1        2.00000          8.25960947
    2        2.00000          8.25960947
    3        2.00000          8.21715548
    4        2.00000          8.21715548
    5        2.00000          6.33688520
    6        2.00000          6.33688520
    7        2.00000          6.33688520
    8        2.00000          6.33688520
    9        2.00000          6.33688520
   10        2.00000          6.33688520
   11        2.00000          6.33688520
   12        2.00000          6.33688520
================================================================================
 
 ----iterations are completed or convergence reached----
 
 Mean square residual over all n,k,spin=   11.618E-08; max=  26.546E-06
 reduced coordinates (array xred) for   12 atoms
       0.000000000000      0.000000000000      0.000000000000
       0.500000000000      0.500000000000      0.000000000000
       0.000000000000      0.500000000000      0.500000000000
       0.500000000000      0.000000000000      0.500000000000
       0.250000000000      0.250000000000      0.250000000000
       0.250000000000      0.250000000000      0.750000000000
       0.250000000000      0.750000000000      0.250000000000
       0.250000000000      0.750000000000      0.750000000000
       0.750000000000      0.250000000000      0.250000000000
       0.750000000000      0.250000000000      0.750000000000
       0.750000000000      0.750000000000      0.250000000000
       0.750000000000      0.750000000000      0.750000000000
 rms dE/dt=  1.6121E-02; max dE/dt=  3.4198E-02; dE/dt below (all hartree)
    1       0.000000000000      0.000000000000      0.000000000000
    2       0.000000000000      0.000000000000      0.000000000000
    3       0.000000000000      0.000000000000      0.000000000000
    4       0.000000000000      0.000000000000      0.000000000000
    5      -0.000000000000     -0.000000000000      0.034197925624
    6      -0.000000000000     -0.000000000000     -0.034197925624
    7      -0.000000000000      0.000000000000      0.034197925624
    8      -0.000000000000      0.000000000000     -0.034197925624
    9       0.000000000000     -0.000000000000      0.034197925624
   10       0.000000000000     -0.000000000000     -0.034197925624
   11       0.000000000000      0.000000000000      0.034197925624
   12       0.000000000000      0.000000000000     -0.034197925624
 
 cartesian coordinates (angstrom) at end:
    1      0.00000000000000     0.00000000000000     0.00000000000000
    2      2.53740471518905     2.53740471518905     0.00000000000000
    3      0.00000000000000     2.53740471518905     2.53740471518905
    4      2.53740471518905     0.00000000000000     2.53740471518905
    5      1.26870235759452     1.26870235759452     1.26870235759452
    6      1.26870235759452     1.26870235759452     3.80610707278357
    7      1.26870235759452     3.80610707278357     1.26870235759452
    8      1.26870235759452     3.80610707278357     3.80610707278357
    9      3.80610707278357     1.26870235759452     1.26870235759452
   10      3.80610707278357     1.26870235759452     3.80610707278357
   11      3.80610707278357     3.80610707278357     1.26870235759452
   12      3.80610707278357     3.80610707278357     3.80610707278357
 
 cartesian forces (hartree/bohr) at end:
    1     -0.00000000000000     0.00000000000000    -0.00000000000000
    2     -0.00000000000000     0.00000000000000    -0.00000000000000
    3     -0.00000000000000     0.00000000000000    -0.00000000000000
    4     -0.00000000000000     0.00000000000000    -0.00000000000000
    5      0.00000000000000     0.00000000000000    -0.00356599850094
    6      0.00000000000000     0.00000000000000     0.00356599850094
    7      0.00000000000000    -0.00000000000000    -0.00356599850094
    8      0.00000000000000    -0.00000000000000     0.00356599850094
    9     -0.00000000000000     0.00000000000000    -0.00356599850094
   10     -0.00000000000000     0.00000000000000     0.00356599850094
   11     -0.00000000000000    -0.00000000000000    -0.00356599850094
   12     -0.00000000000000    -0.00000000000000     0.00356599850094
 frms,max,avg= 1.6810278E-03 3.5659985E-03   0.000E+00  0.000E+00  0.000E+00 h/b
 
 cartesian forces (eV/Angstrom) at end:
    1     -0.00000000000000     0.00000000000000    -0.00000000000000
    2     -0.00000000000000     0.00000000000000    -0.00000000000000
    3     -0.00000000000000     0.00000000000000    -0.00000000000000
    4     -0.00000000000000     0.00000000000000    -0.00000000000000
    5      0.00000000000009     0.00000000000009    -0.18337100025861
    6      0.00000000000009     0.00000000000009     0.18337100025861
    7      0.00000000000009    -0.00000000000009    -0.18337100025861
    8      0.00000000000009    -0.00000000000009     0.18337100025861
    9     -0.00000000000009     0.00000000000009    -0.18337100025861
   10     -0.00000000000009     0.00000000000009     0.18337100025861
   11     -0.00000000000009    -0.00000000000009    -0.18337100025861
   12     -0.00000000000009    -0.00000000000009     0.18337100025861
 frms,max,avg= 8.6441919E-02 1.8337100E-01   0.000E+00  0.000E+00  0.000E+00 e/A
 length scales=  9.590000000000  9.590000000000  9.590000000000 bohr
              =  5.074809430378  5.074809430378  5.074809430378 angstroms
 Fermi (or HOMO) energy (hartree) =   0.30685   Average Vxc (hartree)=  -0.44422
 Eigenvalues (hartree) for nkpt=  36  k points:
 kpt#   1, nband= 49, wtk=  0.01563, kpt=  0.0000  0.0000  0.0000 (reduced coord)
  -1.93913   -1.93880   -1.46096   -1.45977   -0.79197   -0.79197   -0.79020   -0.78550
  -0.78318   -0.78318   -0.66400   -0.66400   -0.66023   -0.65341   -0.65016   -0.65016
  -0.37565   -0.31955   -0.31955   -0.31955   -0.29667   -0.29667   -0.29659   -0.27317
   0.07014    0.07771    0.08506    0.10999    0.11000    0.11000    0.17886    0.18364
   0.18364    0.18371    0.18371    0.18853    0.24785    0.24921    0.24921    0.24924
   0.24924    0.25061    0.28591    0.28594    0.28594    0.30377    0.30531    0.30685
   0.43441
 prteigrs : prtvol=0 or 1, do not print more k-points.
 

--- !EnergyTerms
iteration_state     : {dtset: 1, }
comment             : Components of total free energy in Hartree
kinetic             :  1.45671936051960E+02
hartree             :  5.42965942874549E+01
xc                  : -8.23515354040450E+01
Ewald energy        : -2.71063302416198E+02
psp_core            :  1.42724384190883E+01
local_psp           : -2.04037381950956E+02
non_local_psp       : -3.81378344978758E+00
total_energy        : -3.47025034462482E+02
total_energy_eV     : -9.44303142178834E+03
band_energy         : -2.63193046843863E+01
...

 
 Cartesian components of stress tensor (hartree/bohr^3)
  sigma(1 1)= -1.42578912E-04  sigma(3 2)=  0.00000000E+00
  sigma(2 2)= -1.42578912E-04  sigma(3 1)=  0.00000000E+00
  sigma(3 3)= -1.41900368E-04  sigma(2 1)=  0.00000000E+00
 
-Cartesian components of stress tensor (GPa)         [Pressure=  4.1882E+00 GPa]
- sigma(1 1)= -4.19481571E+00  sigma(3 2)=  0.00000000E+00
- sigma(2 2)= -4.19481571E+00  sigma(3 1)=  0.00000000E+00
- sigma(3 3)= -4.17485226E+00  sigma(2 1)=  0.00000000E+00
 
================================================================================
== DATASET  2 ==================================================================
-   mpi_nproc: 36, omp_nthreads: -1 (-1 if OMP is not activated)
 

--- !DatasetInfo
iteration_state: {dtset: 2, }
dimensions: {natom: 12, nkpt: 36, mband: 49, nsppol: 1, nspinor: 1, nspden: 1, mpw: 6126, }
cutoff_energies: {ecut:  25.0, pawecutdg:  30.0, }
electrons: {nelect:   9.60000000E+01, charge:   0.00000000E+00, occopt:   1.00000000E+00, tsmear:   1.00000000E-02, }
meta: {optdriver: 0, ionmov: 0, optcell: 0, iscf: -2, paral_kgb: 0, }
...

 mkfilename : getwfk/=0, take file _WFK from output of DATASET   1.
 
 mkfilename : getden/=0, take file _DEN from output of DATASET   1.
 
 Exchange-correlation functional for the present dataset will be:
  GGA: Perdew-Burke-Ernzerhof functional - ixc=11
 Citation for XC functional:
  J.P.Perdew, K.Burke, M.Ernzerhof, PRL 77, 3865 (1996)
 
 Real(R)+Recip(G) space primitive vectors, cartesian coordinates (Bohr,Bohr^-1):
 R(1)=  9.5900000  0.0000000  0.0000000  G(1)=  0.1042753  0.0000000  0.0000000
 R(2)=  0.0000000  9.5900000  0.0000000  G(2)=  0.0000000  0.1042753  0.0000000
 R(3)=  0.0000000  0.0000000  9.5900000  G(3)=  0.0000000  0.0000000  0.1042753
 Unit cell volume ucvol=  8.8197408E+02 bohr^3
 Angles (23,13,12)=  9.00000000E+01  9.00000000E+01  9.00000000E+01 degrees
 
 getcut: wavevector=  0.0000  0.0000  0.0000  ngfft=  48  48  48
         ecut(hartree)=     27.563   => boxcut(ratio)=   2.11786
--------------------------------------------------------------------------------
 
-inwffil : will read wavefunctions from disk file o_DS1_WFK.nc
  initberry: for direction 1, nkstr =   4, nstr =     16
  initberry: for direction 2, nkstr =   4, nstr =     16
  initberry: for direction 3, nkstr =   4, nstr =     16
 
================================================================================
 Non-SCF case, kpt    1 (  0.00000  0.00000  0.00000), residuals and eigenvalues=
  5.38E-30  5.38E-30  5.59E-30  7.16E-30  1.60E-29  1.81E-29  1.69E-29  8.44E-30
  7.47E-30  7.24E-30  2.17E-29  1.91E-29  1.89E-29  9.74E-30  7.39E-30  7.46E-30
  1.25E-28  1.06E-28  1.03E-28  1.07E-28  1.24E-28  1.22E-28  1.24E-28  8.94E-29
  1.35E-28  1.20E-28  1.03E-28  1.27E-28  1.26E-28  1.26E-28  1.39E-28  1.25E-28
  1.28E-28  1.24E-28  1.25E-28  1.06E-28  1.17E-28  1.31E-28  1.33E-28  1.30E-28
  1.29E-28  1.48E-28  8.99E-27  1.05E-27  1.70E-27  6.55E-28  1.44E-25  1.16E-26
  6.54E-05
 -1.9391E+00 -1.9388E+00 -1.4610E+00 -1.4598E+00 -7.9197E-01 -7.9197E-01
 -7.9020E-01 -7.8550E-01 -7.8318E-01 -7.8318E-01 -6.6400E-01 -6.6400E-01
 -6.6023E-01 -6.5341E-01 -6.5016E-01 -6.5016E-01 -3.7565E-01 -3.1955E-01
 -3.1955E-01 -3.1955E-01 -2.9667E-01 -2.9667E-01 -2.9659E-01 -2.7317E-01
  7.0137E-02  7.7710E-02  8.5057E-02  1.0999E-01  1.1000E-01  1.1000E-01
  1.7886E-01  1.8364E-01  1.8364E-01  1.8371E-01  1.8371E-01  1.8853E-01
  2.4785E-01  2.4921E-01  2.4921E-01  2.4924E-01  2.4924E-01  2.5061E-01
  2.8591E-01  2.8594E-01  2.8594E-01  3.0377E-01  3.0531E-01  3.0685E-01
  4.3434E-01
  prteigrs : nnsclo,ikpt=   30    1 max resid (incl. the buffer)=  6.54257E-05
 prteigrs : prtvol=0 or 1, do not print more k-points.
 
  prteigrs : nnsclo,ikpt=   30    2 max resid (incl. the buffer)=  2.51994E-05
  prteigrs : nnsclo,ikpt=   30    3 max resid (incl. the buffer)=  7.50166E-06
  prteigrs : nnsclo,ikpt=   30    4 max resid (incl. the buffer)=  3.18012E-06
  prteigrs : nnsclo,ikpt=   30    5 max resid (incl. the buffer)=  1.72084E-07
  prteigrs : nnsclo,ikpt=   30    6 max resid (incl. the buffer)=  8.49890E-09
  prteigrs : nnsclo,ikpt=   30    7 max resid (incl. the buffer)=  8.37300E-07
  prteigrs : nnsclo,ikpt=   30    8 max resid (incl. the buffer)=  3.99803E-06
  prteigrs : nnsclo,ikpt=   30    9 max resid (incl. the buffer)=  4.29791E-08
  prteigrs : nnsclo,ikpt=   30   10 max resid (incl. the buffer)=  1.55643E-10
  prteigrs : nnsclo,ikpt=   30   11 max resid (incl. the buffer)=  1.30299E-05
  prteigrs : nnsclo,ikpt=   30   12 max resid (incl. the buffer)=  2.08600E-05
  prteigrs : nnsclo,ikpt=   30   13 max resid (incl. the buffer)=  1.25036E-06
  prteigrs : nnsclo,ikpt=   30   14 max resid (incl. the buffer)=  2.66938E-06
  prteigrs : nnsclo,ikpt=   30   15 max resid (incl. the buffer)=  9.62428E-06
  prteigrs : nnsclo,ikpt=   30   16 max resid (incl. the buffer)=  1.11197E-05
  prteigrs : nnsclo,ikpt=   30   17 max resid (incl. the buffer)=  2.63790E-06
  prteigrs : nnsclo,ikpt=   30   18 max resid (incl. the buffer)=  5.54900E-05
  prteigrs : nnsclo,ikpt=   30   19 max resid (incl. the buffer)=  4.10892E-08
  prteigrs : nnsclo,ikpt=   30   20 max resid (incl. the buffer)=  7.01418E-06
  prteigrs : nnsclo,ikpt=   30   21 max resid (incl. the buffer)=  1.62240E-08
  prteigrs : nnsclo,ikpt=   30   22 max resid (incl. the buffer)=  5.20077E-07
  prteigrs : nnsclo,ikpt=   30   23 max resid (incl. the buffer)=  1.47473E-05
  prteigrs : nnsclo,ikpt=   30   24 max resid (incl. the buffer)=  1.46187E-05
  prteigrs : nnsclo,ikpt=   30   25 max resid (incl. the buffer)=  4.24095E-06
  prteigrs : nnsclo,ikpt=   30   26 max resid (incl. the buffer)=  4.94317E-05
  prteigrs : nnsclo,ikpt=   30   27 max resid (incl. the buffer)=  2.82806E-05
  prteigrs : nnsclo,ikpt=   30   28 max resid (incl. the buffer)=  2.97206E-06
  prteigrs : nnsclo,ikpt=   30   29 max resid (incl. the buffer)=  2.17237E-07
  prteigrs : nnsclo,ikpt=   30   30 max resid (incl. the buffer)=  4.99461E-07
  prteigrs : nnsclo,ikpt=   30   31 max resid (incl. the buffer)=  1.59592E-05
  prteigrs : nnsclo,ikpt=   30   32 max resid (incl. the buffer)=  5.73407E-08
  prteigrs : nnsclo,ikpt=   30   33 max resid (incl. the buffer)=  5.85942E-05
  prteigrs : nnsclo,ikpt=   30   34 max resid (incl. the buffer)=  3.97982E-06
  prteigrs : nnsclo,ikpt=   30   35 max resid (incl. the buffer)=  3.00595E-07
  prteigrs : nnsclo,ikpt=   30   36 max resid (incl. the buffer)=  2.65715E-07
 
 
 Computing the polarization (Berry phase) for reciprocal vector:
  0.25000  0.00000  0.00000 (in reduced coordinates)
  0.02607  0.00000  0.00000 (in cartesian coordinates - atomic units)
 Number of strings:    16
 Number of k points in string:    4
 
 Computing the ddk (Berry phase) for reciprocal vector:
  0.25000  0.00000  0.00000 (in reduced coordinates)
  0.02607  0.00000  0.00000 (in cartesian coordinates - atomic units)
 Mean square residual over all n,k,spin=   0.0000E+00; max=  0.0000E+00
 
 Computing the polarization (Berry phase) for reciprocal vector:
  0.00000  0.25000  0.00000 (in reduced coordinates)
  0.00000  0.02607  0.00000 (in cartesian coordinates - atomic units)
 Number of strings:    16
 Number of k points in string:    4
 
 Computing the ddk (Berry phase) for reciprocal vector:
  0.00000  0.25000  0.00000 (in reduced coordinates)
  0.00000  0.02607  0.00000 (in cartesian coordinates - atomic units)
 Mean square residual over all n,k,spin=   0.0000E+00; max=  0.0000E+00
 
 Computing the polarization (Berry phase) for reciprocal vector:
  0.00000  0.00000  0.25000 (in reduced coordinates)
  0.00000  0.00000  0.02607 (in cartesian coordinates - atomic units)
 Number of strings:    16
 Number of k points in string:    4
 
 Computing the ddk (Berry phase) for reciprocal vector:
  0.00000  0.00000  0.25000 (in reduced coordinates)
  0.00000  0.00000  0.02607 (in cartesian coordinates - atomic units)
 Mean square residual over all n,k,spin=   0.0000E+00; max=  0.0000E+00
 
 Polarization in cartesian coordinates (a.u.):
 (the sum of the electronic and ionic Berry phase has been folded into [-1, 1])
     Electronic berry phase:        0.000000000E+00   0.000000000E+00   0.000000000E+00
     Ionic:                         0.000000000E+00   0.000000000E+00   0.000000000E+00  
     Total:                         0.000000000E+00   0.000000000E+00   0.000000000E+00
 
 Polarization in cartesian coordinates (C/m^2):
 (the sum of the electronic and ionic Berry phase has been folded into [-1, 1])
     Electronic berry phase:        0.000000000E+00   0.000000000E+00   0.000000000E+00
     Ionic:                         0.000000000E+00   0.000000000E+00   0.000000000E+00  
     Total:                         0.000000000E+00   0.000000000E+00   0.000000000E+00

--- !ResultsGS
iteration_state: {dtset: 2, }
comment   : Summary of ground state results
lattice_vectors:
- [  9.5900000,   0.0000000,   0.0000000, ]
- [  0.0000000,   9.5900000,   0.0000000, ]
- [  0.0000000,   0.0000000,   9.5900000, ]
lattice_lengths: [   9.59000,    9.59000,    9.59000, ]
lattice_angles: [ 90.000,  90.000,  90.000, ] # degrees, (23, 13, 12)
lattice_volume:   8.8197408E+02
convergence: {deltae:  0.000E+00, res2:  0.000E+00, residm:  1.436E-25, diffor:  0.000E+00, }
etotal    :  -3.47025034E+02
entropy   :   0.00000000E+00
fermie    :   3.06846608E-01
cartesian_stress_tensor: null
pressure_GPa: null
xred      :
- [  0.0000E+00,   0.0000E+00,   0.0000E+00, Hf]
- [  5.0000E-01,   5.0000E-01,   0.0000E+00, Hf]
- [  0.0000E+00,   5.0000E-01,   5.0000E-01, Zr]
- [  5.0000E-01,   0.0000E+00,   5.0000E-01, Zr]
- [  2.5000E-01,   2.5000E-01,   2.5000E-01,  O]
- [  2.5000E-01,   2.5000E-01,   7.5000E-01,  O]
- [  2.5000E-01,   7.5000E-01,   2.5000E-01,  O]
- [  2.5000E-01,   7.5000E-01,   7.5000E-01,  O]
- [  7.5000E-01,   2.5000E-01,   2.5000E-01,  O]
- [  7.5000E-01,   2.5000E-01,   7.5000E-01,  O]
- [  7.5000E-01,   7.5000E-01,   2.5000E-01,  O]
- [  7.5000E-01,   7.5000E-01,   7.5000E-01,  O]
cartesian_forces: null
force_length_stats: {min: null, max: null, mean: null, }
...

 Integrated electronic density in atomic spheres:
 ------------------------------------------------
 Atom  Sphere_radius  Integrated_density
    1        2.00000          8.25960947
    2        2.00000          8.25960947
    3        2.00000          8.21715548
    4        2.00000          8.21715548
    5        2.00000          6.33688520
    6        2.00000          6.33688520
    7        2.00000          6.33688520
    8        2.00000          6.33688520
    9        2.00000          6.33688520
   10        2.00000          6.33688520
   11        2.00000          6.33688520
   12        2.00000          6.33688520
================================================================================
 
 ----iterations are completed or convergence reached----
 
 Mean square residual over all n,k,spin=   17.988E-29; max=  14.362E-26
 reduced coordinates (array xred) for   12 atoms
       0.000000000000      0.000000000000      0.000000000000
       0.500000000000      0.500000000000      0.000000000000
       0.000000000000      0.500000000000      0.500000000000
       0.500000000000      0.000000000000      0.500000000000
       0.250000000000      0.250000000000      0.250000000000
       0.250000000000      0.250000000000      0.750000000000
       0.250000000000      0.750000000000      0.250000000000
       0.250000000000      0.750000000000      0.750000000000
       0.750000000000      0.250000000000      0.250000000000
       0.750000000000      0.250000000000      0.750000000000
       0.750000000000      0.750000000000      0.250000000000
       0.750000000000      0.750000000000      0.750000000000
 
 cartesian coordinates (angstrom) at end:
    1      0.00000000000000     0.00000000000000     0.00000000000000
    2      2.53740471518905     2.53740471518905     0.00000000000000
    3      0.00000000000000     2.53740471518905     2.53740471518905
    4      2.53740471518905     0.00000000000000     2.53740471518905
    5      1.26870235759452     1.26870235759452     1.26870235759452
    6      1.26870235759452     1.26870235759452     3.80610707278357
    7      1.26870235759452     3.80610707278357     1.26870235759452
    8      1.26870235759452     3.80610707278357     3.80610707278357
    9      3.80610707278357     1.26870235759452     1.26870235759452
   10      3.80610707278357     1.26870235759452     3.80610707278357
   11      3.80610707278357     3.80610707278357     1.26870235759452
   12      3.80610707278357     3.80610707278357     3.80610707278357
 length scales=  9.590000000000  9.590000000000  9.590000000000 bohr
              =  5.074809430378  5.074809430378  5.074809430378 angstroms
 Eigenvalues (hartree) for nkpt=  36  k points:
 kpt#   1, nband= 49, wtk=  0.01563, kpt=  0.0000  0.0000  0.0000 (reduced coord)
  -1.93913   -1.93880   -1.46096   -1.45977   -0.79197   -0.79197   -0.79020   -0.78550
  -0.78318   -0.78318   -0.66400   -0.66400   -0.66023   -0.65341   -0.65016   -0.65016
  -0.37565   -0.31955   -0.31955   -0.31955   -0.29667   -0.29667   -0.29659   -0.27317
   0.07014    0.07771    0.08506    0.10999    0.11000    0.11000    0.17886    0.18364
   0.18364    0.18371    0.18371    0.18853    0.24785    0.24921    0.24921    0.24924
   0.24924    0.25061    0.28591    0.28594    0.28594    0.30377    0.30531    0.30685
   0.43434
 prteigrs : prtvol=0 or 1, do not print more k-points.
 
 
================================================================================
== DATASET  3 ==================================================================
-   mpi_nproc: 36, omp_nthreads: -1 (-1 if OMP is not activated)
 

--- !DatasetInfo
iteration_state: {dtset: 3, }
dimensions: {natom: 12, nkpt: 36, mband: 49, nsppol: 1, nspinor: 1, nspden: 1, mpw: 6126, }
cutoff_energies: {ecut:  25.0, pawecutdg:  30.0, }
electrons: {nelect:   9.60000000E+01, charge:   0.00000000E+00, occopt:   1.00000000E+00, tsmear:   1.00000000E-02, }
meta: {optdriver: 1, rfelfd: 3, rfphon: 1, rfstrs: 3, }
...

 mkfilename : getwfk/=0, take file _WFK from output of DATASET   2.
 
 mkfilename : getddk/=0, take file _1WF from output of DATASET   2.
 
 Exchange-correlation functional for the present dataset will be:
  GGA: Perdew-Burke-Ernzerhof functional - ixc=11
 Citation for XC functional:
  J.P.Perdew, K.Burke, M.Ernzerhof, PRL 77, 3865 (1996)
 
 Real(R)+Recip(G) space primitive vectors, cartesian coordinates (Bohr,Bohr^-1):
 R(1)=  9.5900000  0.0000000  0.0000000  G(1)=  0.1042753  0.0000000  0.0000000
 R(2)=  0.0000000  9.5900000  0.0000000  G(2)=  0.0000000  0.1042753  0.0000000
 R(3)=  0.0000000  0.0000000  9.5900000  G(3)=  0.0000000  0.0000000  0.1042753
 Unit cell volume ucvol=  8.8197408E+02 bohr^3
 Angles (23,13,12)=  9.00000000E+01  9.00000000E+01  9.00000000E+01 degrees
 
 getcut: wavevector=  0.0000  0.0000  0.0000  ngfft=  48  48  48
         ecut(hartree)=     27.563   => boxcut(ratio)=   2.11786
--------------------------------------------------------------------------------
 
-inwffil : will read wavefunctions from disk file o_DS2_WFK.nc
 symkchk : k-point set has full space-group symmetry.
 
 ==>  initialize data related to q vector <== 
 
 The list of irreducible perturbations for this q vector is:
    1)    idir= 1    ipert=   1
    2)    idir= 3    ipert=   1
    3)    idir= 1    ipert=   2
    4)    idir= 3    ipert=   2
    5)    idir= 1    ipert=   3
    6)    idir= 2    ipert=   3
    7)    idir= 3    ipert=   3
    8)    idir= 1    ipert=   5
    9)    idir= 3    ipert=   5
   10)    idir= 1    ipert=  14
   11)    idir= 3    ipert=  14
   12)    idir= 1    ipert=  15
   13)    idir= 2    ipert=  15
   14)    idir= 3    ipert=  15
   15)    idir= 1    ipert=  16
   16)    idir= 2    ipert=  16
   17)    idir= 3    ipert=  16
 
================================================================================
 
 The perturbation idir=   2  ipert=   1 is
 symmetric of a previously calculated perturbation.
 So, its SCF calculation is not needed.
 
 
 The perturbation idir=   2  ipert=   2 is
 symmetric of a previously calculated perturbation.
 So, its SCF calculation is not needed.
 
 
 The perturbation idir=   1  ipert=   4 is
 symmetric of a previously calculated perturbation.
 So, its SCF calculation is not needed.
 
 
 The perturbation idir=   2  ipert=   4 is
 symmetric of a previously calculated perturbation.
 So, its SCF calculation is not needed.
 
 
 The perturbation idir=   3  ipert=   4 is
 symmetric of a previously calculated perturbation.
 So, its SCF calculation is not needed.
 
 
 The perturbation idir=   2  ipert=   5 is
 symmetric of a previously calculated perturbation.
 So, its SCF calculation is not needed.
 
 
 The perturbation idir=   1  ipert=   6 is
 symmetric of a previously calculated perturbation.
 So, its SCF calculation is not needed.
 
 
 The perturbation idir=   2  ipert=   6 is
 symmetric of a previously calculated perturbation.
 So, its SCF calculation is not needed.
 
 
 The perturbation idir=   3  ipert=   6 is
 symmetric of a previously calculated perturbation.
 So, its SCF calculation is not needed.
 
 
 The perturbation idir=   1  ipert=   7 is
 symmetric of a previously calculated perturbation.
 So, its SCF calculation is not needed.
 
 
 The perturbation idir=   2  ipert=   7 is
 symmetric of a previously calculated perturbation.
 So, its SCF calculation is not needed.
 
 
 The perturbation idir=   3  ipert=   7 is
 symmetric of a previously calculated perturbation.
 So, its SCF calculation is not needed.
 
 
 The perturbation idir=   1  ipert=   8 is
 symmetric of a previously calculated perturbation.
 So, its SCF calculation is not needed.
 
 
 The perturbation idir=   2  ipert=   8 is
 symmetric of a previously calculated perturbation.
 So, its SCF calculation is not needed.
 
 
 The perturbation idir=   3  ipert=   8 is
 symmetric of a previously calculated perturbation.
 So, its SCF calculation is not needed.
 
 
 The perturbation idir=   1  ipert=   9 is
 symmetric of a previously calculated perturbation.
 So, its SCF calculation is not needed.
 
 
 The perturbation idir=   2  ipert=   9 is
 symmetric of a previously calculated perturbation.
 So, its SCF calculation is not needed.
 
 
 The perturbation idir=   3  ipert=   9 is
 symmetric of a previously calculated perturbation.
 So, its SCF calculation is not needed.
 
 
 The perturbation idir=   1  ipert=  10 is
 symmetric of a previously calculated perturbation.
 So, its SCF calculation is not needed.
 
 
 The perturbation idir=   2  ipert=  10 is
 symmetric of a previously calculated perturbation.
 So, its SCF calculation is not needed.
 
 
 The perturbation idir=   3  ipert=  10 is
 symmetric of a previously calculated perturbation.
 So, its SCF calculation is not needed.
 
 
 The perturbation idir=   1  ipert=  11 is
 symmetric of a previously calculated perturbation.
 So, its SCF calculation is not needed.
 
 
 The perturbation idir=   2  ipert=  11 is
 symmetric of a previously calculated perturbation.
 So, its SCF calculation is not needed.
 
 
 The perturbation idir=   3  ipert=  11 is
 symmetric of a previously calculated perturbation.
 So, its SCF calculation is not needed.
 
 
 The perturbation idir=   1  ipert=  12 is
 symmetric of a previously calculated perturbation.
 So, its SCF calculation is not needed.
 
 
 The perturbation idir=   2  ipert=  12 is
 symmetric of a previously calculated perturbation.
 So, its SCF calculation is not needed.
 
 
 The perturbation idir=   3  ipert=  12 is
 symmetric of a previously calculated perturbation.
 So, its SCF calculation is not needed.
 
 
 The perturbation idir=   2  ipert=  14 is
 symmetric of a previously calculated perturbation.
 So, its SCF calculation is not needed.
 
 
--------------------------------------------------------------------------------
 Perturbation wavevector (in red.coord.)   0.000000  0.000000  0.000000
 Perturbation : displacement of atom   1   along direction   1
 Found     4 symmetries that leave the perturbation invariant.
 symkpt : the number of k-points, thanks to the symmetries,
 is reduced to    27 .
 
--------------------------------------------------------------------------------
 
-inwffil : will read wavefunctions from disk file o_DS2_WFK.nc
--------------------------------------------------------------------------------
 
 Initialisation of the first-order wave-functions :
  ireadwf=   0

--- !BeginCycle
iteration_state: {dtset: 3, }
solver: {iscf: 7, nstep: 100, nline: 4, wfoptalg: 0, }
tolerances: {tolvrs: 1.00E-13, }
...
 
     iter   2DEtotal(Ha)        deltaE(Ha) residm    vres2
-ETOT  1   17.300405604379     -3.379E+03 1.283E+01 1.199E+04
 ETOT  2   13.242895842440     -4.058E+00 5.271E-01 4.862E+02
 ETOT  3   13.430909057093      1.880E-01 5.283E-02 1.680E+03
 ETOT  4   12.712988124539     -7.179E-01 1.703E-01 2.567E+01
 ETOT  5   12.705279674575     -7.708E-03 5.668E-02 3.164E-01
 ETOT  6   12.705124890897     -1.548E-04 1.843E-01 2.808E-02
 ETOT  7   12.705098098762     -2.679E-05 4.384E-02 1.006E-03
 ETOT  8   12.705097505371     -5.934E-07 1.688E-01 2.731E-04
 ETOT  9   12.705097290313     -2.151E-07 3.953E-02 6.299E-05
 ETOT 10   12.705097248054     -4.226E-08 1.528E-01 7.254E-07
 ETOT 11   12.705097247627     -4.266E-10 3.752E-02 1.598E-07
 ETOT 12   12.705097247574     -5.366E-11 1.429E-01 2.159E-08
 ETOT 13   12.705097247559     -1.501E-11 3.658E-02 4.787E-10
 ETOT 14   12.705097247571      1.228E-11 1.377E-01 1.164E-10
 ETOT 15   12.705097247563     -7.731E-12 3.630E-02 1.302E-11
 ETOT 16   12.705097247571      8.185E-12 1.348E-01 8.449E-13
 ETOT 17   12.705097247570     -1.364E-12 3.625E-02 6.960E-14
 
 At SCF step   17       vres2   =  6.96E-14 < tolvrs=  1.00E-13 =>converged.
-open ddk wf file :o_DS2_1WF37.nc
-open ddk wf file :o_DS2_1WF38.nc
-open ddk wf file :o_DS2_1WF39.nc
================================================================================
 
 ----iterations are completed or convergence reached----
 
 Mean square residual over all n,k,spin=   86.047E-06; max=  36.253E-03
 
 Thirteen components of 2nd-order total energy (hartree) are
 1,2,3: 0th-order hamiltonian combined with 1st-order wavefunctions
     kin0=   3.44261599E+03 eigvalue=   7.11849709E+02  local=  -2.54850328E+03
 4,5,6: 1st-order hamiltonian combined with 1st and 0th-order wfs
 loc psp =  -4.82072837E+03  Hartree=   1.21440005E+03     xc=  -2.37291110E+02
 note that "loc psp" includes a xc core correction that could be resolved
 7,8,9: eventually, occupation + non-local contributions
    edocc=   7.48719843E+00     enl0=   7.93201539E+02   enl1=  -1.94679181E+03
 1-9 gives the relaxation energy (to be shifted if some occ is /=2.0)
   erelax=  -3.38376009E+03
 10,11,12 Non-relaxation  contributions : frozen-wavefunctions and Ewald
 fr.local=   1.86619979E+03 fr.nonlo=   9.83550899E+02  Ewald=   4.40281598E+02
 13,14 Frozen wf xc core corrections (1) and (2)
 frxc 1  =  -4.09421890E+02  frxc 2 =   5.15854790E+02
 Resulting in :
 2DEtotal=    0.1270509725E+02 Ha. Also 2DEtotal=    0.345723278182E+03 eV
    (2DErelax=   -3.3837600892E+03 Ha. 2DEnonrelax=    3.3964651864E+03 Ha)
    (  non-var. 2DEtotal :    1.2705097218E+01 Ha)
 
 
--------------------------------------------------------------------------------
 Perturbation wavevector (in red.coord.)   0.000000  0.000000  0.000000
 Perturbation : displacement of atom   1   along direction   3
 Found     8 symmetries that leave the perturbation invariant.
 symkpt : the number of k-points, thanks to the symmetries,
 is reduced to    18 .
 
--------------------------------------------------------------------------------
 
-inwffil : will read wavefunctions from disk file o_DS2_WFK.nc
--------------------------------------------------------------------------------
 
 Initialisation of the first-order wave-functions :
  ireadwf=   0

--- !BeginCycle
iteration_state: {dtset: 3, }
solver: {iscf: 7, nstep: 100, nline: 4, wfoptalg: 0, }
tolerances: {tolvrs: 1.00E-13, }
...
 
     iter   2DEtotal(Ha)        deltaE(Ha) residm    vres2
-ETOT  1   17.649813917370     -3.379E+03 1.196E+01 1.230E+04
 ETOT  2   13.350181902312     -4.300E+00 8.316E-01 5.050E+02
 ETOT  3   13.539543903760      1.894E-01 6.334E-02 1.713E+03
 ETOT  4   12.808134776241     -7.314E-01 9.851E-02 2.521E+01
 ETOT  5   12.800622368541     -7.512E-03 2.712E-02 4.142E-01
 ETOT  6   12.800445448897     -1.769E-04 2.731E-02 2.418E-02
 ETOT  7   12.800420330042     -2.512E-05 1.298E-02 5.269E-04
 ETOT  8   12.800419949162     -3.809E-07 8.860E-03 1.527E-04
 ETOT  9   12.800419915372     -3.379E-08 6.208E-03 2.502E-05
 ETOT 10   12.800419891973     -2.340E-08 3.778E-03 3.764E-07
 ETOT 11   12.800419891667     -3.056E-10 3.699E-03 5.513E-08
 ETOT 12   12.800419891649     -1.819E-11 2.878E-03 6.517E-09
 ETOT 13   12.800419891654      5.002E-12 2.922E-03 1.710E-10
 ETOT 14   12.800419891636     -1.774E-11 2.252E-03 3.311E-11
 ETOT 15   12.800419891641      4.093E-12 2.343E-03 1.924E-12
 ETOT 16   12.800419891655      1.410E-11 1.790E-03 1.545E-13
 ETOT 17   12.800419891664      9.550E-12 1.893E-03 1.701E-14
 
 At SCF step   17       vres2   =  1.70E-14 < tolvrs=  1.00E-13 =>converged.
-open ddk wf file :o_DS2_1WF37.nc
-open ddk wf file :o_DS2_1WF38.nc
-open ddk wf file :o_DS2_1WF39.nc
================================================================================
 
 ----iterations are completed or convergence reached----
 
 Mean square residual over all n,k,spin=   28.699E-07; max=  18.926E-04
 
 Thirteen components of 2nd-order total energy (hartree) are
 1,2,3: 0th-order hamiltonian combined with 1st-order wavefunctions
     kin0=   3.44462329E+03 eigvalue=   7.12985514E+02  local=  -2.55123805E+03
 4,5,6: 1st-order hamiltonian combined with 1st and 0th-order wfs
 loc psp =  -4.82162753E+03  Hartree=   1.21456055E+03     xc=  -2.37419459E+02
 note that "loc psp" includes a xc core correction that could be resolved
 7,8,9: eventually, occupation + non-local contributions
    edocc=   6.35804507E+00     enl0=   7.94276199E+02   enl1=  -1.94666462E+03
 1-9 gives the relaxation energy (to be shifted if some occ is /=2.0)
   erelax=  -3.38414608E+03
 10,11,12 Non-relaxation  contributions : frozen-wavefunctions and Ewald
 fr.local=   1.86670960E+03 fr.nonlo=   9.83474013E+02  Ewald=   4.40281598E+02
 13,14 Frozen wf xc core corrections (1) and (2)
 frxc 1  =  -4.09428763E+02  frxc 2 =   5.15910053E+02
 Resulting in :
 2DEtotal=    0.1280041989E+02 Ha. Also 2DEtotal=    0.348317139241E+03 eV
    (2DErelax=   -3.3841460795E+03 Ha. 2DEnonrelax=    3.3969464993E+03 Ha)
    (  non-var. 2DEtotal :    1.2800419872E+01 Ha)
 
 
--------------------------------------------------------------------------------
 Perturbation wavevector (in red.coord.)   0.000000  0.000000  0.000000
 Perturbation : displacement of atom   2   along direction   1
 Found     4 symmetries that leave the perturbation invariant.
 symkpt : the number of k-points, thanks to the symmetries,
 is reduced to    27 .
 
--------------------------------------------------------------------------------
 
-inwffil : will read wavefunctions from disk file o_DS2_WFK.nc
--------------------------------------------------------------------------------
 
 Initialisation of the first-order wave-functions :
  ireadwf=   0

--- !BeginCycle
iteration_state: {dtset: 3, }
solver: {iscf: 7, nstep: 100, nline: 4, wfoptalg: 0, }
tolerances: {tolvrs: 1.00E-13, }
...
 
     iter   2DEtotal(Ha)        deltaE(Ha) residm    vres2
-ETOT  1   17.323784692304     -3.379E+03 1.284E+01 1.199E+04
 ETOT  2   13.232488001408     -4.091E+00 7.881E-01 4.828E+02
 ETOT  3   13.420987824422      1.885E-01 9.151E-02 1.673E+03
 ETOT  4   12.706558908944     -7.144E-01 1.165E-01 2.545E+01
 ETOT  5   12.698910590335     -7.648E-03 6.078E-02 3.236E-01
 ETOT  6   12.698754626958     -1.560E-04 9.892E-02 2.824E-02
 ETOT  7   12.698727805324     -2.682E-05 5.094E-02 1.063E-03
 ETOT  8   12.698727188616     -6.167E-07 8.962E-02 2.939E-04
 ETOT  9   12.698726947275     -2.413E-07 4.832E-02 6.259E-05
 ETOT 10   12.698726906817     -4.046E-08 8.677E-02 7.199E-07
 ETOT 11   12.698726906402     -4.147E-10 4.826E-02 1.608E-07
 ETOT 12   12.698726906343     -5.866E-11 8.536E-02 2.238E-08
 ETOT 13   12.698726906333     -1.046E-11 4.858E-02 4.497E-10
 ETOT 14   12.698726906346      1.319E-11 8.467E-02 1.187E-10
 ETOT 15   12.698726906334     -1.228E-11 4.902E-02 1.414E-11
 ETOT 16   12.698726906339      5.002E-12 8.432E-02 9.281E-13
 ETOT 17   12.698726906352      1.273E-11 4.950E-02 7.020E-14
 
 At SCF step   17       vres2   =  7.02E-14 < tolvrs=  1.00E-13 =>converged.
-open ddk wf file :o_DS2_1WF37.nc
-open ddk wf file :o_DS2_1WF38.nc
-open ddk wf file :o_DS2_1WF39.nc
================================================================================
 
 ----iterations are completed or convergence reached----
 
 Mean square residual over all n,k,spin=   10.911E-05; max=  49.496E-03
 
 Thirteen components of 2nd-order total energy (hartree) are
 1,2,3: 0th-order hamiltonian combined with 1st-order wavefunctions
     kin0=   3.44079358E+03 eigvalue=   7.11465075E+02  local=  -2.54691621E+03
 4,5,6: 1st-order hamiltonian combined with 1st and 0th-order wfs
 loc psp =  -4.82073273E+03  Hartree=   1.21440348E+03     xc=  -2.37292303E+02
 note that "loc psp" includes a xc core correction that could be resolved
 7,8,9: eventually, occupation + non-local contributions
    edocc=   8.32395012E+00     enl0=   7.92988883E+02   enl1=  -1.94680019E+03
 1-9 gives the relaxation energy (to be shifted if some occ is /=2.0)
   erelax=  -3.38376646E+03
 10,11,12 Non-relaxation  contributions : frozen-wavefunctions and Ewald
 fr.local=   1.86619979E+03 fr.nonlo=   9.83550899E+02  Ewald=   4.40281598E+02
 13,14 Frozen wf xc core corrections (1) and (2)
 frxc 1  =  -4.09421890E+02  frxc 2 =   5.15854790E+02
 Resulting in :
 2DEtotal=    0.1269872691E+02 Ha. Also 2DEtotal=    0.345549932382E+03 eV
    (2DErelax=   -3.3837664595E+03 Ha. 2DEnonrelax=    3.3964651864E+03 Ha)
    (  non-var. 2DEtotal :    1.2698726877E+01 Ha)
 
 
--------------------------------------------------------------------------------
 Perturbation wavevector (in red.coord.)   0.000000  0.000000  0.000000
 Perturbation : displacement of atom   2   along direction   3
 Found     8 symmetries that leave the perturbation invariant.
 symkpt : the number of k-points, thanks to the symmetries,
 is reduced to    18 .
 
--------------------------------------------------------------------------------
 
-inwffil : will read wavefunctions from disk file o_DS2_WFK.nc
--------------------------------------------------------------------------------
 
 Initialisation of the first-order wave-functions :
  ireadwf=   0

--- !BeginCycle
iteration_state: {dtset: 3, }
solver: {iscf: 7, nstep: 100, nline: 4, wfoptalg: 0, }
tolerances: {tolvrs: 1.00E-13, }
...
 
     iter   2DEtotal(Ha)        deltaE(Ha) residm    vres2
-ETOT  1   17.700062899065     -3.379E+03 1.196E+01 1.230E+04
 ETOT  2   13.348697113115     -4.351E+00 7.594E-01 5.039E+02
 ETOT  3   13.537490034552      1.888E-01 5.646E-02 1.706E+03
 ETOT  4   12.809240317198     -7.282E-01 8.869E-02 2.515E+01
 ETOT  5   12.801737881791     -7.502E-03 1.501E-02 4.351E-01
 ETOT  6   12.801555586101     -1.823E-04 2.446E-02 2.442E-02
 ETOT  7   12.801530258144     -2.533E-05 8.071E-03 5.189E-04
 ETOT  8   12.801529881599     -3.765E-07 1.017E-02 1.596E-04
 ETOT  9   12.801529848171     -3.343E-08 5.595E-03 3.337E-05
 ETOT 10   12.801529817120     -3.105E-08 5.019E-03 3.137E-07
 ETOT 11   12.801529816855     -2.656E-10 4.173E-03 6.574E-08
 ETOT 12   12.801529816872      1.683E-11 3.249E-03 8.848E-09
 ETOT 13   12.801529816856     -1.592E-11 3.225E-03 2.799E-10
 ETOT 14   12.801529816825     -3.092E-11 2.508E-03 4.100E-11
 ETOT 15   12.801529816853      2.819E-11 2.542E-03 2.285E-12
 ETOT 16   12.801529816843     -1.000E-11 1.973E-03 3.649E-13
 ETOT 17   12.801529816825     -1.774E-11 2.028E-03 2.944E-14
 
 At SCF step   17       vres2   =  2.94E-14 < tolvrs=  1.00E-13 =>converged.
-open ddk wf file :o_DS2_1WF37.nc
-open ddk wf file :o_DS2_1WF38.nc
-open ddk wf file :o_DS2_1WF39.nc
================================================================================
 
 ----iterations are completed or convergence reached----
 
 Mean square residual over all n,k,spin=   29.449E-07; max=  20.275E-04
 
 Thirteen components of 2nd-order total energy (hartree) are
 1,2,3: 0th-order hamiltonian combined with 1st-order wavefunctions
     kin0=   3.44273565E+03 eigvalue=   7.12459694E+02  local=  -2.55005328E+03
 4,5,6: 1st-order hamiltonian combined with 1st and 0th-order wfs
 loc psp =  -4.82162747E+03  Hartree=   1.21456171E+03     xc=  -2.37419146E+02
 note that "loc psp" includes a xc core correction that could be resolved
 7,8,9: eventually, occupation + non-local contributions
    edocc=   7.23420693E+00     enl0=   7.94626132E+02   enl1=  -1.94666247E+03
 1-9 gives the relaxation energy (to be shifted if some occ is /=2.0)
   erelax=  -3.38414497E+03
 10,11,12 Non-relaxation  contributions : frozen-wavefunctions and Ewald
 fr.local=   1.86670960E+03 fr.nonlo=   9.83474013E+02  Ewald=   4.40281598E+02
 13,14 Frozen wf xc core corrections (1) and (2)
 frxc 1  =  -4.09428763E+02  frxc 2 =   5.15910053E+02
 Resulting in :
 2DEtotal=    0.1280152982E+02 Ha. Also 2DEtotal=    0.348347341841E+03 eV
    (2DErelax=   -3.3841449695E+03 Ha. 2DEnonrelax=    3.3969464993E+03 Ha)
    (  non-var. 2DEtotal :    1.2801529801E+01 Ha)
 
 
--------------------------------------------------------------------------------
 Perturbation wavevector (in red.coord.)   0.000000  0.000000  0.000000
 Perturbation : displacement of atom   3   along direction   1
 Found     4 symmetries that leave the perturbation invariant.
 symkpt : the number of k-points, thanks to the symmetries,
 is reduced to    27 .
 
--------------------------------------------------------------------------------
 
-inwffil : will read wavefunctions from disk file o_DS2_WFK.nc
--------------------------------------------------------------------------------
 
 Initialisation of the first-order wave-functions :
  ireadwf=   0

--- !BeginCycle
iteration_state: {dtset: 3, }
solver: {iscf: 7, nstep: 100, nline: 4, wfoptalg: 0, }
tolerances: {tolvrs: 1.00E-13, }
...
 
     iter   2DEtotal(Ha)        deltaE(Ha) residm    vres2
-ETOT  1   19.994707013757     -3.980E+03 1.553E+01 1.199E+04
 ETOT  2   14.210582569568     -5.784E+00 5.152E+00 5.521E+02
 ETOT  3   14.101141058184     -1.094E-01 3.470E-01 1.047E+03
 ETOT  4   13.735112813526     -3.660E-01 8.620E-01 2.441E+01
 ETOT  5   13.705853071919     -2.926E-02 2.100E-01 3.748E+00
 ETOT  6   13.704874241017     -9.788E-04 6.789E-01 1.374E-01
 ETOT  7   13.704839058941     -3.518E-05 1.862E-01 1.034E-03
 ETOT  8   13.704838386830     -6.721E-07 9.367E-01 5.367E-04
 ETOT  9   13.704837915366     -4.715E-07 2.557E-01 6.107E-05
 ETOT 10   13.704837871368     -4.400E-08 1.206E+00 5.895E-07
 ETOT 11   13.704837871145     -2.233E-10 2.750E-01 1.086E-06
 ETOT 12   13.704837870812     -3.333E-10 1.197E+00 2.407E-08
 ETOT 13   13.704837870820      8.185E-12 2.731E-01 1.133E-08
 ETOT 14   13.704837870794     -2.592E-11 1.183E+00 1.046E-10
 ETOT 15   13.704837870810      1.637E-11 2.713E-01 2.670E-11
 ETOT 16   13.704837870820      1.000E-11 1.173E+00 2.407E-12
 ETOT 17   13.704837870819     -1.364E-12 2.701E-01 5.567E-14
 
 At SCF step   17       vres2   =  5.57E-14 < tolvrs=  1.00E-13 =>converged.
-open ddk wf file :o_DS2_1WF37.nc
-open ddk wf file :o_DS2_1WF38.nc
-open ddk wf file :o_DS2_1WF39.nc
================================================================================
 
 ----iterations are completed or convergence reached----
 
 Mean square residual over all n,k,spin=   63.826E-05; max=  27.014E-02
 
 Thirteen components of 2nd-order total energy (hartree) are
 1,2,3: 0th-order hamiltonian combined with 1st-order wavefunctions
     kin0=   3.83907083E+03 eigvalue=   5.96322515E+02  local=  -3.18985285E+03
 4,5,6: 1st-order hamiltonian combined with 1st and 0th-order wfs
 loc psp =  -4.28371664E+03  Hartree=   1.14947615E+03     xc=  -2.77904849E+02
 note that "loc psp" includes a xc core correction that could be resolved
 7,8,9: eventually, occupation + non-local contributions
    edocc=   5.81318984E+01     enl0=   1.81113320E+03   enl1=  -3.68903715E+03
 1-9 gives the relaxation energy (to be shifted if some occ is /=2.0)
   erelax=  -3.98637690E+03
 10,11,12 Non-relaxation  contributions : frozen-wavefunctions and Ewald
 fr.local=   1.74821780E+03 fr.nonlo=   1.85074648E+03  Ewald=   4.40281598E+02
 13,14 Frozen wf xc core corrections (1) and (2)
 frxc 1  =  -3.30671888E+02  frxc 2 =   2.91507735E+02
 Resulting in :
 2DEtotal=    0.1370483787E+02 Ha. Also 2DEtotal=    0.372927604042E+03 eV
    (2DErelax=   -3.9863768959E+03 Ha. 2DEnonrelax=    4.0000817338E+03 Ha)
    (  non-var. 2DEtotal :    1.3704837852E+01 Ha)
 
 
--------------------------------------------------------------------------------
 Perturbation wavevector (in red.coord.)   0.000000  0.000000  0.000000
 Perturbation : displacement of atom   3   along direction   2
 Found     4 symmetries that leave the perturbation invariant.
 symkpt : the number of k-points, thanks to the symmetries,
 is reduced to    27 .
 
--------------------------------------------------------------------------------
 
-inwffil : will read wavefunctions from disk file o_DS2_WFK.nc
--------------------------------------------------------------------------------
 
 Initialisation of the first-order wave-functions :
  ireadwf=   0

--- !BeginCycle
iteration_state: {dtset: 3, }
solver: {iscf: 7, nstep: 100, nline: 4, wfoptalg: 0, }
tolerances: {tolvrs: 1.00E-13, }
...
 
     iter   2DEtotal(Ha)        deltaE(Ha) residm    vres2
-ETOT  1   20.070197114647     -3.980E+03 1.692E+01 1.199E+04
 ETOT  2   14.277250156269     -5.793E+00 4.563E+00 5.516E+02
 ETOT  3   14.175159395254     -1.021E-01 3.421E-01 1.064E+03
 ETOT  4   13.801214301493     -3.739E-01 5.990E-01 2.377E+01
 ETOT  5   13.772885606274     -2.833E-02 1.673E-01 3.796E+00
 ETOT  6   13.771896577081     -9.890E-04 4.564E-01 1.372E-01
 ETOT  7   13.771861421097     -3.516E-05 1.602E-01 7.934E-04
 ETOT  8   13.771860716785     -7.043E-07 3.971E-01 2.447E-04
 ETOT  9   13.771860563316     -1.535E-07 1.551E-01 6.157E-05
 ETOT 10   13.771860509115     -5.420E-08 3.809E-01 5.717E-07
 ETOT 11   13.771860508708     -4.079E-10 1.524E-01 7.746E-07
 ETOT 12   13.771860508507     -2.005E-10 3.735E-01 2.369E-08
 ETOT 13   13.771860508483     -2.410E-11 1.506E-01 1.014E-08
 ETOT 14   13.771860508489      6.366E-12 3.709E-01 5.740E-11
 ETOT 15   13.771860508502      1.228E-11 1.493E-01 2.580E-11
 ETOT 16   13.771860508491     -1.091E-11 3.695E-01 1.563E-12
 ETOT 17   13.771860508467     -2.319E-11 1.482E-01 6.036E-14
 
 At SCF step   17       vres2   =  6.04E-14 < tolvrs=  1.00E-13 =>converged.
-open ddk wf file :o_DS2_1WF37.nc
-open ddk wf file :o_DS2_1WF38.nc
-open ddk wf file :o_DS2_1WF39.nc
================================================================================
 
 ----iterations are completed or convergence reached----
 
 Mean square residual over all n,k,spin=   32.527E-05; max=  14.820E-02
 
 Thirteen components of 2nd-order total energy (hartree) are
 1,2,3: 0th-order hamiltonian combined with 1st-order wavefunctions
     kin0=   3.81687424E+03 eigvalue=   5.93156852E+02  local=  -3.17269806E+03
 4,5,6: 1st-order hamiltonian combined with 1st and 0th-order wfs
 loc psp =  -4.28363957E+03  Hartree=   1.14943005E+03     xc=  -2.77891452E+02
 note that "loc psp" includes a xc core correction that could be resolved
 7,8,9: eventually, occupation + non-local contributions
    edocc=   6.54207304E+01     enl0=   1.81201751E+03   enl1=  -3.68898018E+03
 1-9 gives the relaxation energy (to be shifted if some occ is /=2.0)
   erelax=  -3.98630987E+03
 10,11,12 Non-relaxation  contributions : frozen-wavefunctions and Ewald
 fr.local=   1.74821780E+03 fr.nonlo=   1.85074648E+03  Ewald=   4.40281598E+02
 13,14 Frozen wf xc core corrections (1) and (2)
 frxc 1  =  -3.30671888E+02  frxc 2 =   2.91507735E+02
 Resulting in :
 2DEtotal=    0.1377186051E+02 Ha. Also 2DEtotal=    0.374751382762E+03 eV
    (2DErelax=   -3.9863098733E+03 Ha. 2DEnonrelax=    4.0000817338E+03 Ha)
    (  non-var. 2DEtotal :    1.3771860500E+01 Ha)
 
 
--------------------------------------------------------------------------------
 Perturbation wavevector (in red.coord.)   0.000000  0.000000  0.000000
 Perturbation : displacement of atom   3   along direction   3
 Found     4 symmetries that leave the perturbation invariant.
 symkpt : the number of k-points, thanks to the symmetries,
 is reduced to    27 .
 
--------------------------------------------------------------------------------
 
-inwffil : will read wavefunctions from disk file o_DS2_WFK.nc
--------------------------------------------------------------------------------
 
 Initialisation of the first-order wave-functions :
  ireadwf=   0

--- !BeginCycle
iteration_state: {dtset: 3, }
solver: {iscf: 7, nstep: 100, nline: 4, wfoptalg: 0, }
tolerances: {tolvrs: 1.00E-13, }
...
 
     iter   2DEtotal(Ha)        deltaE(Ha) residm    vres2
-ETOT  1   20.614366404842     -3.979E+03 1.670E+01 1.189E+04
 ETOT  2   14.208372116707     -6.406E+00 7.187E-01 6.041E+02
 ETOT  3   14.000680673468     -2.077E-01 1.761E-01 8.967E+02
 ETOT  4   13.718665172982     -2.820E-01 1.517E-01 3.798E+01
 ETOT  5   13.675474285995     -4.319E-02 8.463E-02 4.179E+00
 ETOT  6   13.674368320366     -1.106E-03 7.926E-02 1.917E-01
 ETOT  7   13.674318793956     -4.953E-05 4.628E-02 8.511E-04
 ETOT  8   13.674317950993     -8.430E-07 4.000E-02 1.081E-04
 ETOT  9   13.674317889218     -6.177E-08 2.335E-02 3.334E-05
 ETOT 10   13.674317858718     -3.050E-08 2.032E-02 1.815E-06
 ETOT 11   13.674317857078     -1.640E-09 1.186E-02 5.527E-07
 ETOT 12   13.674317856912     -1.660E-10 1.037E-02 2.117E-08
 ETOT 13   13.674317856925      1.319E-11 6.072E-03 6.022E-09
 ETOT 14   13.674317856912     -1.364E-11 5.315E-03 2.835E-11
 ETOT 15   13.674317856918      6.366E-12 3.128E-03 6.005E-12
 ETOT 16   13.674317856919      9.095E-13 2.732E-03 9.762E-13
 ETOT 17   13.674317856924      4.547E-12 1.623E-03 5.992E-14
 
 At SCF step   17       vres2   =  5.99E-14 < tolvrs=  1.00E-13 =>converged.
-open ddk wf file :o_DS2_1WF37.nc
-open ddk wf file :o_DS2_1WF38.nc
-open ddk wf file :o_DS2_1WF39.nc
================================================================================
 
 ----iterations are completed or convergence reached----
 
 Mean square residual over all n,k,spin=   33.867E-07; max=  16.234E-04
 
 Thirteen components of 2nd-order total energy (hartree) are
 1,2,3: 0th-order hamiltonian combined with 1st-order wavefunctions
     kin0=   3.85532451E+03 eigvalue=   5.98566824E+02  local=  -3.19890183E+03
 4,5,6: 1st-order hamiltonian combined with 1st and 0th-order wfs
 loc psp =  -4.28236074E+03  Hartree=   1.14924582E+03     xc=  -2.77730135E+02
 note that "loc psp" includes a xc core correction that could be resolved
 7,8,9: eventually, occupation + non-local contributions
    edocc=   5.23144777E+01     enl0=   1.80727164E+03   enl1=  -3.68982187E+03
 1-9 gives the relaxation energy (to be shifted if some occ is /=2.0)
   erelax=  -3.98609131E+03
 10,11,12 Non-relaxation  contributions : frozen-wavefunctions and Ewald
 fr.local=   1.74758629E+03 fr.nonlo=   1.85108455E+03  Ewald=   4.40281598E+02
 13,14 Frozen wf xc core corrections (1) and (2)
 frxc 1  =  -3.30667813E+02  frxc 2 =   2.91481002E+02
 Resulting in :
 2DEtotal=    0.1367431786E+02 Ha. Also 2DEtotal=    0.372097112228E+03 eV
    (2DErelax=   -3.9860913050E+03 Ha. 2DEnonrelax=    3.9997656229E+03 Ha)
    (  non-var. 2DEtotal :    1.3674317827E+01 Ha)
 
 
--------------------------------------------------------------------------------
 Perturbation wavevector (in red.coord.)   0.000000  0.000000  0.000000
 Perturbation : displacement of atom   5   along direction   1
 The set of symmetries contains only one element for this perturbation.
 symkpt : not enough symmetry to change the number of k points.
 
--------------------------------------------------------------------------------
 
-inwffil : will read wavefunctions from disk file o_DS2_WFK.nc
--------------------------------------------------------------------------------
 
 Initialisation of the first-order wave-functions :
  ireadwf=   0

--- !BeginCycle
iteration_state: {dtset: 3, }
solver: {iscf: 7, nstep: 100, nline: 4, wfoptalg: 0, }
tolerances: {tolvrs: 1.00E-13, }
...
 
     iter   2DEtotal(Ha)        deltaE(Ha) residm    vres2
-ETOT  1   20.473638327753     -5.052E+03 2.108E+00 1.354E+04
 ETOT  2   11.140585590270     -9.333E+00 5.626E-01 7.971E+02
 ETOT  3   10.750372588282     -3.902E-01 2.665E-01 3.496E+01
 ETOT  4   10.727854323258     -2.252E-02 2.886E-01 3.170E+00
 ETOT  5   10.726815639975     -1.039E-03 2.115E-01 7.642E-01
 ETOT  6   10.726787864905     -2.778E-05 2.757E-01 4.031E-01
 ETOT  7   10.726509470606     -2.784E-04 1.922E-01 1.114E-02
 ETOT  8   10.726504439964     -5.031E-06 2.759E-01 3.329E-03
 ETOT  9   10.726502246112     -2.194E-06 1.804E-01 2.929E-04
 ETOT 10   10.726502015722     -2.304E-07 2.768E-01 1.623E-05
 ETOT 11   10.726502005030     -1.069E-08 1.735E-01 4.394E-07
 ETOT 12   10.726502004804     -2.256E-10 2.779E-01 3.952E-07
 ETOT 13   10.726502004542     -2.628E-10 1.727E-01 2.788E-08
 ETOT 14   10.726502004519     -2.274E-11 2.791E-01 5.088E-10
 ETOT 15   10.726502004532      1.364E-11 1.739E-01 4.918E-10
 ETOT 16   10.726502004520     -1.273E-11 2.802E-01 8.345E-11
 ETOT 17   10.726502004511     -9.095E-12 1.751E-01 7.101E-12
 ETOT 18   10.726502004514      3.638E-12 2.814E-01 1.336E-12
 ETOT 19   10.726502004498     -1.637E-11 1.763E-01 4.248E-13
 ETOT 20   10.726502004509      1.091E-11 2.824E-01 4.752E-14
 
 At SCF step   20       vres2   =  4.75E-14 < tolvrs=  1.00E-13 =>converged.
-open ddk wf file :o_DS2_1WF37.nc
-open ddk wf file :o_DS2_1WF38.nc
-open ddk wf file :o_DS2_1WF39.nc
================================================================================
 
 ----iterations are completed or convergence reached----
 
 Mean square residual over all n,k,spin=   13.063E-04; max=  28.243E-02
 
 Thirteen components of 2nd-order total energy (hartree) are
 1,2,3: 0th-order hamiltonian combined with 1st-order wavefunctions
     kin0=   5.94113055E+03 eigvalue=  -2.27327462E+02  local=  -2.01479709E+03
 4,5,6: 1st-order hamiltonian combined with 1st and 0th-order wfs
 loc psp =  -3.25095353E+03  Hartree=   9.45435724E+02     xc=  -2.33239086E+02
 note that "loc psp" includes a xc core correction that could be resolved
 7,8,9: eventually, occupation + non-local contributions
    edocc=   2.62720234E+00     enl0=   6.47481203E+02   enl1=  -6.87166856E+03
 1-9 gives the relaxation energy (to be shifted if some occ is /=2.0)
   erelax=  -5.06131104E+03
 10,11,12 Non-relaxation  contributions : frozen-wavefunctions and Ewald
 fr.local=   1.43955871E+03 fr.nonlo=   3.44465922E+03  Ewald=   2.35865142E+02
 13,14 Frozen wf xc core corrections (1) and (2)
 frxc 1  =  -2.11719190E+02  frxc 2 =   1.63673655E+02
 Resulting in :
 2DEtotal=    0.1072650200E+02 Ha. Also 2DEtotal=    0.291882963520E+03 eV
    (2DErelax=   -5.0613110440E+03 Ha. 2DEnonrelax=    5.0720375460E+03 Ha)
    (  non-var. 2DEtotal :    1.0726502016E+01 Ha)
 
 
--------------------------------------------------------------------------------
 Perturbation wavevector (in red.coord.)   0.000000  0.000000  0.000000
 Perturbation : displacement of atom   5   along direction   3
 Found     2 symmetries that leave the perturbation invariant.
 symkpt : the number of k-points, thanks to the symmetries,
 is reduced to    24 .
 
--------------------------------------------------------------------------------
 
-inwffil : will read wavefunctions from disk file o_DS2_WFK.nc
--------------------------------------------------------------------------------
 
 Initialisation of the first-order wave-functions :
  ireadwf=   0

--- !BeginCycle
iteration_state: {dtset: 3, }
solver: {iscf: 7, nstep: 100, nline: 4, wfoptalg: 0, }
tolerances: {tolvrs: 1.00E-13, }
...
 
     iter   2DEtotal(Ha)        deltaE(Ha) residm    vres2
-ETOT  1   20.510147205944     -5.051E+03 2.241E+00 1.366E+04
[...]
   2   14   1   10                  NaN                  NaN
   3   14   1   10                  NaN                  NaN
  
   1   14   2   10                  NaN                  NaN
   2   14   2   10                  NaN                  NaN
   3   14   2   10                  NaN                  NaN
  
   1   14   3   10                  NaN                  NaN
   2   14   3   10                  NaN                  NaN
   3   14   3   10                  NaN                  NaN
  
   1   14   1   11                  NaN                  NaN
   2   14   1   11                  NaN                  NaN
   3   14   1   11                  NaN                  NaN
  
   1   14   2   11                  NaN                  NaN
   2   14   2   11                  NaN                  NaN
   3   14   2   11                  NaN                  NaN
  
   1   14   3   11                  NaN                  NaN
   2   14   3   11                  NaN                  NaN
   3   14   3   11                  NaN                  NaN
  
   1   14   1   12                  NaN                  NaN
   2   14   1   12                  NaN                  NaN
   3   14   1   12                  NaN                  NaN
  
   1   14   2   12                  NaN                  NaN
   2   14   2   12                  NaN                  NaN
   3   14   2   12                  NaN                  NaN
  
   1   14   3   12                  NaN                  NaN
   2   14   3   12                  NaN                  NaN
   3   14   3   12                  NaN                  NaN
  
  
  
  
  Rigid-atom elastic tensor , in cartesian coordinates,
     j1       j2             matrix element
  dir pert dir pert     real part    imaginary part
  
   1   15   1   15         0.0044781503         0.0000000000
   1   15   2   15         0.0025174640         0.0000000000
   1   15   3   15         0.0025069373         0.0000000000
   1   15   1   16         0.0000000440         0.0000000000
   1   15   2   16        -0.0000000013         0.0000000000
   1   15   3   16        -0.0000000947         0.0000000000
  
   2   15   1   15         0.0025174641         0.0000000000
   2   15   2   15         0.0044787965         0.0000000000
   2   15   3   15         0.0025069381         0.0000000000
   2   15   1   16        -0.0000000615         0.0000000000
   2   15   2   16        -0.0000000238         0.0000000000
   2   15   3   16        -0.0000000947         0.0000000000
  
   3   15   1   15         0.0025070444         0.0000000000
   3   15   2   15         0.0025067835         0.0000000000
   3   15   3   15         0.0044758356         0.0000000000
   3   15   1   16        -0.0000000329         0.0000000000
   3   15   2   16         0.0000000334         0.0000000000
   3   15   3   16         0.0000000968         0.0000000000
  
   1   16   1   15         0.0000000000         0.0000000000
   1   16   2   15        -0.0000000000         0.0000000000
   1   16   3   15        -0.0000000000         0.0000000000
   1   16   1   16         0.0022311301         0.0000000000
   1   16   2   16        -0.0000000000         0.0000000000
   1   16   3   16        -0.0000000000         0.0000000000
  
   2   16   1   15         0.0000000000         0.0000000000
   2   16   2   15         0.0000000000         0.0000000000
   2   16   3   15         0.0000000000         0.0000000000
   2   16   1   16        -0.0000000000         0.0000000000
   2   16   2   16         0.0022310447         0.0000000000
   2   16   3   16        -0.0000000000         0.0000000000
  
   3   16   1   15        -0.0000000000         0.0000000000
   3   16   2   15        -0.0000000000         0.0000000000
   3   16   3   15        -0.0000000000         0.0000000000
   3   16   1   16        -0.0000000000         0.0000000000
   3   16   2   16        -0.0000000000         0.0000000000
   3   16   3   16         0.0022263221         0.0000000000
  
  Internal strain coupling parameters, in cartesian coordinates,
   zero average net force deriv. has been imposed  
     j1       j2             matrix element
  dir pert dir pert     real part    imaginary part
  
   1    1   1   15        -0.0000000000         0.0000000000
   1    1   2   15         0.0000000000         0.0000000000
   1    1   3   15         0.0000000000         0.0000000000
   1    1   1   16        -0.0000000000         0.0000000000
   1    1   2   16        -0.0000000000         0.0000000000
   1    1   3   16         0.0000000000         0.0000000000
  
   2    1   1   15         0.0000000000         0.0000000000
   2    1   2   15        -0.0000000000         0.0000000000
   2    1   3   15         0.0000000000         0.0000000000
   2    1   1   16        -0.0000000000         0.0000000000
   2    1   2   16        -0.0000000000         0.0000000000
   2    1   3   16        -0.0000000000         0.0000000000
  
   3    1   1   15        -0.0000000000         0.0000000000
   3    1   2   15        -0.0000000000         0.0000000000
   3    1   3   15        -0.0000000000         0.0000000000
   3    1   1   16        -0.0000000000         0.0000000000
   3    1   2   16        -0.0000000000         0.0000000000
   3    1   3   16        -0.0000000000         0.0000000000
  
   1    2   1   15        -0.0000000000         0.0000000000
   1    2   2   15         0.0000000000         0.0000000000
   1    2   3   15         0.0000000000         0.0000000000
   1    2   1   16         0.0000000000         0.0000000000
   1    2   2   16        -0.0000000000         0.0000000000
   1    2   3   16         0.0000000000         0.0000000000
  
   2    2   1   15        -0.0000000000         0.0000000000
   2    2   2   15         0.0000000000         0.0000000000
   2    2   3   15        -0.0000000000         0.0000000000
   2    2   1   16         0.0000000000         0.0000000000
   2    2   2   16         0.0000000000         0.0000000000
   2    2   3   16         0.0000000000         0.0000000000
  
   3    2   1   15        -0.0000000000         0.0000000000
   3    2   2   15         0.0000000000         0.0000000000
   3    2   3   15        -0.0000000000         0.0000000000
   3    2   1   16         0.0000000000         0.0000000000
   3    2   2   16        -0.0000000000         0.0000000000
   3    2   3   16         0.0000000000         0.0000000000
  
   1    3   1   15        -0.0000000000         0.0000000000
   1    3   2   15         0.0000000000         0.0000000000
   1    3   3   15         0.0000000000         0.0000000000
   1    3   1   16         0.0000000000         0.0000000000
   1    3   2   16         0.0000000000         0.0000000000
   1    3   3   16        -0.0000000000         0.0000000000
  
   2    3   1   15         0.0000000000         0.0000000000
   2    3   2   15         0.0000000000         0.0000000000
   2    3   3   15         0.0000000000         0.0000000000
   2    3   1   16         0.0000000000         0.0000000000
   2    3   2   16         0.0000000000         0.0000000000
   2    3   3   16        -0.0000000000         0.0000000000
  
   3    3   1   15         0.0000000000         0.0000000000
   3    3   2   15        -0.0000000000         0.0000000000
   3    3   3   15         0.0000000000         0.0000000000
   3    3   1   16        -0.0000000000         0.0000000000
   3    3   2   16        -0.0000000000         0.0000000000
   3    3   3   16         0.0000000000         0.0000000000
  
   1    4   1   15         0.0000000000         0.0000000000
   1    4   2   15         0.0000000000         0.0000000000
   1    4   3   15         0.0000000000         0.0000000000
   1    4   1   16         0.0000000000         0.0000000000
   1    4   2   16         0.0000000000         0.0000000000
   1    4   3   16        -0.0000000000         0.0000000000
  
   2    4   1   15        -0.0000000000         0.0000000000
   2    4   2   15        -0.0000000000         0.0000000000
   2    4   3   15         0.0000000000         0.0000000000
   2    4   1   16         0.0000000000         0.0000000000
   2    4   2   16         0.0000000000         0.0000000000
   2    4   3   16        -0.0000000000         0.0000000000
  
   3    4   1   15         0.0000000000         0.0000000000
   3    4   2   15         0.0000000000         0.0000000000
   3    4   3   15         0.0000000000         0.0000000000
   3    4   1   16         0.0000000000         0.0000000000
   3    4   2   16        -0.0000000000         0.0000000000
   3    4   3   16         0.0000000000         0.0000000000
  
   1    5   1   15        -0.0000106659         0.0000000000
   1    5   2   15         0.0000104808         0.0000000000
   1    5   3   15         0.0000071859         0.0000000000
   1    5   1   16        -0.1337947749         0.0000000000
   1    5   2   16         0.0061789236         0.0000000000
   1    5   3   16         0.0000021278         0.0000000000
  
   2    5   1   15        -0.0000015355         0.0000000000
   2    5   2   15        -0.0000089830         0.0000000000
   2    5   3   15         0.0000071859         0.0000000000
   2    5   1   16         0.0061829275         0.0000000000
   2    5   2   16        -0.1337982184         0.0000000000
   2    5   3   16         0.0000021278         0.0000000000
  
   3    5   1   15         0.0060325761         0.0000000000
   3    5   2   15         0.0060158431         0.0000000000
   3    5   3   15        -0.0047587547         0.0000000000
   3    5   1   16        -0.0000008534         0.0000000000
   3    5   2   16        -0.0000132571         0.0000000000
   3    5   3   16        -0.1336268610         0.0000000000
  
   1    6   1   15        -0.0000106659         0.0000000000
   1    6   2   15         0.0000104808         0.0000000000
   1    6   3   15         0.0000071859         0.0000000000
   1    6   1   16         0.1337843342         0.0000000000
   1    6   2   16        -0.0061746381         0.0000000000
   1    6   3   16         0.0000021278         0.0000000000
  
   2    6   1   15        -0.0000015355         0.0000000000
   2    6   2   15        -0.0000089830         0.0000000000
   2    6   3   15         0.0000071859         0.0000000000
   2    6   1   16        -0.0061884367         0.0000000000
   2    6   2   16         0.1337918264         0.0000000000
   2    6   3   16         0.0000021278         0.0000000000
  
   3    6   1   15        -0.0060325761         0.0000000000
   3    6   2   15        -0.0060158431         0.0000000000
   3    6   3   15         0.0047587547         0.0000000000
   3    6   1   16        -0.0000010279         0.0000000000
   3    6   2   16        -0.0000159212         0.0000000000
   3    6   3   16         0.1336268610         0.0000000000
  
   1    7   1   15        -0.0000106659         0.0000000000
   1    7   2   15         0.0000104808         0.0000000000
   1    7   3   15         0.0000071859         0.0000000000
   1    7   1   16         0.1337843342         0.0000000000
   1    7   2   16         0.0061789236         0.0000000000
   1    7   3   16         0.0000035375         0.0000000000
  
   2    7   1   15         0.0000015355         0.0000000000
   2    7   2   15         0.0000089830         0.0000000000
   2    7   3   15        -0.0000071859         0.0000000000
   2    7   1   16         0.0061884367         0.0000000000
   2    7   2   16         0.1337982184         0.0000000000
   2    7   3   16        -0.0000035375         0.0000000000
  
   3    7   1   15         0.0060325761         0.0000000000
   3    7   2   15         0.0060158431         0.0000000000
   3    7   3   15        -0.0047587547         0.0000000000
   3    7   1   16         0.0000010279         0.0000000000
   3    7   2   16        -0.0000132571         0.0000000000
   3    7   3   16         0.1336384511         0.0000000000
  
   1    8   1   15        -0.0000106659         0.0000000000
   1    8   2   15         0.0000104808         0.0000000000
   1    8   3   15         0.0000071859         0.0000000000
   1    8   1   16        -0.1337947749         0.0000000000
   1    8   2   16        -0.0061746381         0.0000000000
   1    8   3   16         0.0000035375         0.0000000000
  
   2    8   1   15         0.0000015355         0.0000000000
   2    8   2   15         0.0000089830         0.0000000000
   2    8   3   15        -0.0000071859         0.0000000000
   2    8   1   16        -0.0061829275         0.0000000000
   2    8   2   16        -0.1337918264         0.0000000000
   2    8   3   16        -0.0000035375         0.0000000000
  
   3    8   1   15        -0.0060325761         0.0000000000
   3    8   2   15        -0.0060158431         0.0000000000
   3    8   3   15         0.0047587547         0.0000000000
   3    8   1   16         0.0000008534         0.0000000000
   3    8   2   16        -0.0000159212         0.0000000000
   3    8   3   16        -0.1336384511         0.0000000000
  
   1    9   1   15         0.0000106659         0.0000000000
   1    9   2   15        -0.0000104808         0.0000000000
   1    9   3   15        -0.0000071859         0.0000000000
   1    9   1   16         0.1337947749         0.0000000000
   1    9   2   16         0.0061746381         0.0000000000
   1    9   3   16        -0.0000035375         0.0000000000
  
   2    9   1   15        -0.0000015355         0.0000000000
   2    9   2   15        -0.0000089830         0.0000000000
   2    9   3   15         0.0000071859         0.0000000000
   2    9   1   16         0.0061829275         0.0000000000
   2    9   2   16         0.1337918264         0.0000000000
   2    9   3   16         0.0000035375         0.0000000000
  
   3    9   1   15         0.0060325761         0.0000000000
   3    9   2   15         0.0060158431         0.0000000000
   3    9   3   15        -0.0047587547         0.0000000000
   3    9   1   16        -0.0000008534         0.0000000000
   3    9   2   16         0.0000159212         0.0000000000
   3    9   3   16         0.1336384511         0.0000000000
  
   1   10   1   15         0.0000106659         0.0000000000
   1   10   2   15        -0.0000104808         0.0000000000
   1   10   3   15        -0.0000071859         0.0000000000
   1   10   1   16        -0.1337843342         0.0000000000
   1   10   2   16        -0.0061789236         0.0000000000
   1   10   3   16        -0.0000035375         0.0000000000
  
   2   10   1   15        -0.0000015355         0.0000000000
   2   10   2   15        -0.0000089830         0.0000000000
   2   10   3   15         0.0000071859         0.0000000000
   2   10   1   16        -0.0061884367         0.0000000000
   2   10   2   16        -0.1337982184         0.0000000000
   2   10   3   16         0.0000035375         0.0000000000
  
   3   10   1   15        -0.0060325761         0.0000000000
   3   10   2   15        -0.0060158431         0.0000000000
   3   10   3   15         0.0047587547         0.0000000000
   3   10   1   16        -0.0000010279         0.0000000000
   3   10   2   16         0.0000132571         0.0000000000
   3   10   3   16        -0.1336384511         0.0000000000
  
   1   11   1   15         0.0000106659         0.0000000000
   1   11   2   15        -0.0000104808         0.0000000000
   1   11   3   15        -0.0000071859         0.0000000000
   1   11   1   16        -0.1337843342         0.0000000000
   1   11   2   16         0.0061746381         0.0000000000
   1   11   3   16        -0.0000021278         0.0000000000
  
   2   11   1   15         0.0000015355         0.0000000000
   2   11   2   15         0.0000089830         0.0000000000
   2   11   3   15        -0.0000071859         0.0000000000
   2   11   1   16         0.0061884367         0.0000000000
   2   11   2   16        -0.1337918264         0.0000000000
   2   11   3   16        -0.0000021278         0.0000000000
  
   3   11   1   15         0.0060325761         0.0000000000
   3   11   2   15         0.0060158431         0.0000000000
   3   11   3   15        -0.0047587547         0.0000000000
   3   11   1   16         0.0000010279         0.0000000000
   3   11   2   16         0.0000159212         0.0000000000
   3   11   3   16        -0.1336268610         0.0000000000
  
   1   12   1   15         0.0000106659         0.0000000000
   1   12   2   15        -0.0000104808         0.0000000000
   1   12   3   15        -0.0000071859         0.0000000000
   1   12   1   16         0.1337947749         0.0000000000
   1   12   2   16        -0.0061789236         0.0000000000
   1   12   3   16        -0.0000021278         0.0000000000
  
   2   12   1   15         0.0000015355         0.0000000000
   2   12   2   15         0.0000089830         0.0000000000
   2   12   3   15        -0.0000071859         0.0000000000
   2   12   1   16        -0.0061829275         0.0000000000
   2   12   2   16         0.1337982184         0.0000000000
   2   12   3   16        -0.0000021278         0.0000000000
  
   3   12   1   15        -0.0060325761         0.0000000000
   3   12   2   15        -0.0060158431         0.0000000000
   3   12   3   15         0.0047587547         0.0000000000
   3   12   1   16         0.0000008534         0.0000000000
   3   12   2   16         0.0000132571         0.0000000000
   3   12   3   16         0.1336268610         0.0000000000
  
  Rigid-atom proper piezoelectric tensor, in cartesian coordinates,
  (from strain response)
     j1       j2             matrix element
  dir pert dir pert     real part    imaginary part
  
   1   14   1   15         0.0000000000         0.0000000000
   1   14   2   15         0.0000000000         0.0000000000
   1   14   3   15         0.0000000000         0.0000000000
   1   14   1   16         0.0000000000         0.0000000000
   1   14   2   16         0.0000000000         0.0000000000
   1   14   3   16         0.0000000000         0.0000000000
  
   2   14   1   15         0.0000000000         0.0000000000
   2   14   2   15         0.0000000000         0.0000000000
   2   14   3   15         0.0000000000         0.0000000000
   2   14   1   16         0.0000000000         0.0000000000
   2   14   2   16         0.0000000000         0.0000000000
   2   14   3   16         0.0000000000         0.0000000000
  
   3   14   1   15         0.0000000000         0.0000000000
   3   14   2   15         0.0000000000         0.0000000000
   3   14   3   15         0.0000000000         0.0000000000
   3   14   1   16         0.0000000000         0.0000000000
   3   14   2   16         0.0000000000         0.0000000000
   3   14   3   16         0.0000000000         0.0000000000
 
  Phonon wavevector (reduced coordinates) :  0.00000  0.00000  0.00000
 Phonon energies in Hartree :
  -1.197460E-03 -1.139438E-03 -1.074367E-03 -1.702395E-04 -1.702395E-04
  -1.686809E-04  3.936327E-04  4.502499E-04  4.502499E-04  4.702832E-04
   4.702832E-04  5.642411E-04  9.170811E-04  9.610472E-04  9.610472E-04
   1.193607E-03  1.245179E-03  1.245179E-03  1.245385E-03  1.245385E-03
   1.296420E-03  1.409501E-03  1.409501E-03  1.422139E-03  2.521952E-03
   2.540327E-03  2.540327E-03  2.540632E-03  2.540632E-03  2.556866E-03
   2.612964E-03  2.613775E-03  2.613775E-03  3.114352E-03  3.128516E-03
   3.142656E-03
 Phonon frequencies in cm-1    :
- -2.628122E+02 -2.500778E+02 -2.357963E+02 -3.736325E+01 -3.736325E+01
- -3.702117E+01  8.639240E+01  9.881843E+01  9.881843E+01  1.032152E+02
-  1.032152E+02  1.238366E+02  2.012760E+02  2.109255E+02  2.109255E+02
-  2.619665E+02  2.732851E+02  2.732851E+02  2.733304E+02  2.733304E+02
-  2.845314E+02  3.093496E+02  3.093496E+02  3.121234E+02  5.535044E+02
-  5.575373E+02  5.575373E+02  5.576042E+02  5.576042E+02  5.611672E+02
-  5.734793E+02  5.736572E+02  5.736572E+02  6.835212E+02  6.866298E+02
-  6.897333E+02
