
.Version 9.4.1 of ABINIT 
.(MPI version, prepared for a x86_64_linux_intel19.0 computer) 

.Copyright (C) 1998-2021 ABINIT group . 
 ABINIT comes with ABSOLUTELY NO WARRANTY.
 It is free software, and you are welcome to redistribute it
 under certain conditions (GNU General Public License,
 see ~abinit/COPYING or http://www.gnu.org/copyleft/gpl.txt).

 ABINIT is a project of the Universite Catholique de Louvain,
 Corning Inc. and other collaborators, see ~abinit/doc/developers/contributors.txt .
 Please read https://docs.abinit.org/theory/acknowledgments for suggested
 acknowledgments of the ABINIT effort.
 For more information, see https://www.abinit.org .

.Starting date : Thu  3 Jun 2021.
- ( at 10h40 )
  
- input  file    -> dfpt0
- output file    -> dfpt0.abo
- root for input  files -> i
- root for output files -> o
 
 
 DATASET    1 : the unit cell is not primitive
================================================================================
 Values of the parameters that define the memory need for DATASET  1.
     intxc =       0    ionmov =       0      iscf =       7    lmnmax =       8
     lnmax =       8     mgfft =      48  mpssoang =       4    mqgrid =    3001
     natom =      12  nloc_mem =       1    nspden =       1   nspinor =       1
    nsppol =       1      nsym =      48    n1xccc =    2501    ntypat =       2
    occopt =       1   xclevel =       2
-    mband =          48        mffmem =           1         mkmem =           4
       mpw =        6140          nfft =      110592          nkpt =         112
================================================================================
P This job should need less than                      55.387 Mbytes of memory.
  Rough estimation (10% accuracy) of disk space for files :
_ WF disk file :    503.674 Mbytes ; DEN or POT disk file :      0.846 Mbytes.
================================================================================
 
 
 DATASET    2 : the unit cell is not primitive
================================================================================
 Values of the parameters that define the memory need for DATASET  2.
     intxc =       0    ionmov =       0      iscf =      -2    lmnmax =       8
     lnmax =       8     mgfft =      48  mpssoang =       4    mqgrid =    3001
     natom =      12  nloc_mem =       1    nspden =       1   nspinor =       1
    nsppol =       1      nsym =      48    n1xccc =    2501    ntypat =       2
    occopt =       1   xclevel =       2
-    mband =          48        mffmem =           1         mkmem =           4
       mpw =        6140          nfft =      110592          nkpt =         112
================================================================================
P This job should need less than                      41.887 Mbytes of memory.
  Rough estimation (10% accuracy) of disk space for files :
_ WF disk file :    503.674 Mbytes ; DEN or POT disk file :      0.846 Mbytes.
================================================================================
 
 
 DATASET    3 : the unit cell is not primitive
================================================================================
 Values of the parameters that define the memory need for DATASET  3 (RF).
     intxc =       0      iscf =       7    lmnmax =       8     lnmax =       8
     mgfft =      48  mpssoang =       4    mqgrid =    3001     natom =      12
  nloc_mem =       1    nspden =       1   nspinor =       1    nsppol =       1
      nsym =      48    n1xccc =    2501    ntypat =       2    occopt =       1
   xclevel =       2
-    mband =          48        mffmem =           1         mkmem =           4
-   mkqmem =           4        mk1mem =           4           mpw =        6140
      nfft =      110592          nkpt =         112
================================================================================
P This job should need less than                      87.191 Mbytes of memory.
  Rough estimation (10% accuracy) of disk space for files :
_ WF disk file :    503.674 Mbytes ; DEN or POT disk file :      0.846 Mbytes.
================================================================================
 
--------------------------------------------------------------------------------
------------- Echo of variables that govern the present computation ------------
--------------------------------------------------------------------------------
-
- outvars: echo of selected default values                                      
-   iomode0 =  3 , fftalg0 =512 , wfoptalg0 =  0
-
- outvars: echo of global parameters not present in the input file              
-  max_nthreads =    0
-
 -outvars: echo values of preprocessed input variables --------
            acell      9.5914334888E+00  9.5914334888E+00  9.5914334888E+00 Bohr
              amu      1.78490000E+02  1.59994000E+01
         berryopt1          0
         berryopt2         -2
         berryopt3          0
          chkprim           0
          dilatmx      1.05000000E+00
             ecut      2.50000000E+01 Hartree
           ecutsm      5.00000000E-01 Hartree
-          fftalg         512
           getddk1          0
           getddk2          0
           getddk3          2
           getden1          0
           getden2          1
           getden3          0
           getwfk1          0
           getwfk2          1
           getwfk3          2
             iscf1          7
             iscf2         -2
             iscf3          7
           istwfk1       2    0    0    3    0    0    0    0    0    0
                         0    0    0    0    0    0    6    0    0    7
                         0    0    0    0    0    0    0    0    0    0
                         0    0    0    0    0    0    0    0    0    0
                         0    0    0    0    0    0    0    0    0    0
           istwfk2       1    0    0    1    0    0    0    0    0    0
                         0    0    0    0    0    0    1    0    0    1
                         0    0    0    0    0    0    0    0    0    0
                         0    0    0    0    0    0    0    0    0    0
                         0    0    0    0    0    0    0    0    0    0
           istwfk3       1    0    0    1    0    0    0    0    0    0
                         0    0    0    0    0    0    1    0    0    1
                         0    0    0    0    0    0    0    0    0    0
                         0    0    0    0    0    0    0    0    0    0
                         0    0    0    0    0    0    0    0    0    0
                       outvar_i_n : Printing only first  50 k-points.
              ixc          11
           jdtset        1    2    3
              kpt      0.00000000E+00  0.00000000E+00  0.00000000E+00
                       1.66666667E-01  0.00000000E+00  0.00000000E+00
                       3.33333333E-01  0.00000000E+00  0.00000000E+00
                       5.00000000E-01  0.00000000E+00  0.00000000E+00
                       0.00000000E+00  1.66666667E-01  0.00000000E+00
                       1.66666667E-01  1.66666667E-01  0.00000000E+00
                       3.33333333E-01  1.66666667E-01  0.00000000E+00
                       5.00000000E-01  1.66666667E-01  0.00000000E+00
                      -3.33333333E-01  1.66666667E-01  0.00000000E+00
                      -1.66666667E-01  1.66666667E-01  0.00000000E+00
                       0.00000000E+00  3.33333333E-01  0.00000000E+00
                       1.66666667E-01  3.33333333E-01  0.00000000E+00
                       3.33333333E-01  3.33333333E-01  0.00000000E+00
                       5.00000000E-01  3.33333333E-01  0.00000000E+00
                      -3.33333333E-01  3.33333333E-01  0.00000000E+00
                      -1.66666667E-01  3.33333333E-01  0.00000000E+00
                       0.00000000E+00  5.00000000E-01  0.00000000E+00
                       1.66666667E-01  5.00000000E-01  0.00000000E+00
                       3.33333333E-01  5.00000000E-01  0.00000000E+00
                       5.00000000E-01  5.00000000E-01  0.00000000E+00
                       0.00000000E+00  0.00000000E+00  1.66666667E-01
                       1.66666667E-01  0.00000000E+00  1.66666667E-01
                       3.33333333E-01  0.00000000E+00  1.66666667E-01
                       5.00000000E-01  0.00000000E+00  1.66666667E-01
                      -3.33333333E-01  0.00000000E+00  1.66666667E-01
                      -1.66666667E-01  0.00000000E+00  1.66666667E-01
                       0.00000000E+00  1.66666667E-01  1.66666667E-01
                       1.66666667E-01  1.66666667E-01  1.66666667E-01
                       3.33333333E-01  1.66666667E-01  1.66666667E-01
                       5.00000000E-01  1.66666667E-01  1.66666667E-01
                      -3.33333333E-01  1.66666667E-01  1.66666667E-01
                      -1.66666667E-01  1.66666667E-01  1.66666667E-01
                       0.00000000E+00  3.33333333E-01  1.66666667E-01
                       1.66666667E-01  3.33333333E-01  1.66666667E-01
                       3.33333333E-01  3.33333333E-01  1.66666667E-01
                       5.00000000E-01  3.33333333E-01  1.66666667E-01
                      -3.33333333E-01  3.33333333E-01  1.66666667E-01
                      -1.66666667E-01  3.33333333E-01  1.66666667E-01
                       0.00000000E+00  5.00000000E-01  1.66666667E-01
                       1.66666667E-01  5.00000000E-01  1.66666667E-01
                       3.33333333E-01  5.00000000E-01  1.66666667E-01
                       5.00000000E-01  5.00000000E-01  1.66666667E-01
                      -3.33333333E-01  5.00000000E-01  1.66666667E-01
                      -1.66666667E-01  5.00000000E-01  1.66666667E-01
                       0.00000000E+00 -3.33333333E-01  1.66666667E-01
                       1.66666667E-01 -3.33333333E-01  1.66666667E-01
                       3.33333333E-01 -3.33333333E-01  1.66666667E-01
                       5.00000000E-01 -3.33333333E-01  1.66666667E-01
                      -3.33333333E-01 -3.33333333E-01  1.66666667E-01
                      -1.66666667E-01 -3.33333333E-01  1.66666667E-01
                       outvar_i_n : Printing only first  50 k-points.
           kptopt           2
         kptrlatt        6    0    0      0    6    0      0    0    6
          kptrlen      5.75486009E+01
P           mkmem           4
P          mkqmem           4
P          mk1mem           4
            natom          12
            nband          48
           nbdbuf1          0
           nbdbuf2          2
           nbdbuf3          0
           ndtset           3
            ngfft          48      48      48
             nkpt         112
            nstep1        100
            nstep2         30
            nstep3        100
             nsym          48
           ntypat           2
              occ      2.000000  2.000000  2.000000  2.000000  2.000000  2.000000
                       2.000000  2.000000  2.000000  2.000000  2.000000  2.000000
                       2.000000  2.000000  2.000000  2.000000  2.000000  2.000000
                       2.000000  2.000000  2.000000  2.000000  2.000000  2.000000
                       2.000000  2.000000  2.000000  2.000000  2.000000  2.000000
                       2.000000  2.000000  2.000000  2.000000  2.000000  2.000000
                       2.000000  2.000000  2.000000  2.000000  2.000000  2.000000
                       2.000000  2.000000  2.000000  2.000000  2.000000  2.000000
        optdriver1          0
        optdriver2          0
        optdriver3          1
        pawecutdg      3.00000000E+01 Hartree
         pawxcdev           0
           prtden1          1
           prtden2          0
           prtden3          0
           prteig           0
            prtwf1          1
            prtwf2          1
            prtwf3          0
          rfatpol1          1       1
          rfatpol2          1       1
          rfatpol3          1      12
            rfdir1          0       0       0
            rfdir2          1       1       1
            rfdir3          1       1       1
           rfelfd1          0
           rfelfd2          0
           rfelfd3          3
           rfphon1          0
           rfphon2          0
           rfphon3          1
           rfstrs1          0
           rfstrs2          0
           rfstrs3          3
        symmorphi           0
           symrel      1  0  0   0  1  0   0  0  1      -1  0  0   0 -1  0   0  0 -1
                      -1  0  0   0  1  0   0  0 -1       1  0  0   0 -1  0   0  0  1
                      -1  0  0   0 -1  0   0  0  1       1  0  0   0  1  0   0  0 -1
                       1  0  0   0 -1  0   0  0 -1      -1  0  0   0  1  0   0  0  1
                       0  1  0   1  0  0   0  0  1       0 -1  0  -1  0  0   0  0 -1
                       0 -1  0   1  0  0   0  0 -1       0  1  0  -1  0  0   0  0  1
                       0 -1  0  -1  0  0   0  0  1       0  1  0   1  0  0   0  0 -1
                       0  1  0  -1  0  0   0  0 -1       0 -1  0   1  0  0   0  0  1
                       0  0  1   1  0  0   0  1  0       0  0 -1  -1  0  0   0 -1  0
                       0  0 -1   1  0  0   0 -1  0       0  0  1  -1  0  0   0  1  0
                       0  0 -1  -1  0  0   0  1  0       0  0  1   1  0  0   0 -1  0
                       0  0  1  -1  0  0   0 -1  0       0  0 -1   1  0  0   0  1  0
                       1  0  0   0  0  1   0  1  0      -1  0  0   0  0 -1   0 -1  0
                      -1  0  0   0  0  1   0 -1  0       1  0  0   0  0 -1   0  1  0
                      -1  0  0   0  0 -1   0  1  0       1  0  0   0  0  1   0 -1  0
                       1  0  0   0  0 -1   0 -1  0      -1  0  0   0  0  1   0  1  0
                       0  1  0   0  0  1   1  0  0       0 -1  0   0  0 -1  -1  0  0
                       0 -1  0   0  0  1  -1  0  0       0  1  0   0  0 -1   1  0  0
                       0 -1  0   0  0 -1   1  0  0       0  1  0   0  0  1  -1  0  0
                       0  1  0   0  0 -1  -1  0  0       0 -1  0   0  0  1   1  0  0
                       0  0  1   0  1  0   1  0  0       0  0 -1   0 -1  0  -1  0  0
                       0  0 -1   0  1  0  -1  0  0       0  0  1   0 -1  0   1  0  0
                       0  0 -1   0 -1  0   1  0  0       0  0  1   0  1  0  -1  0  0
                       0  0  1   0 -1  0  -1  0  0       0  0 -1   0  1  0   1  0  0
           toldfe1     1.00000000E-13 Hartree
           toldfe2     0.00000000E+00 Hartree
           toldfe3     0.00000000E+00 Hartree
           tolvrs1     0.00000000E+00
           tolvrs2     0.00000000E+00
           tolvrs3     1.00000000E-13
           tolwfr1     0.00000000E+00
           tolwfr2     1.00000000E-22
           tolwfr3     0.00000000E+00
            typat      1  1  1  1  2  2  2  2  2  2  2  2
              wtk        0.00463    0.00926    0.00926    0.00463    0.00926    0.00926
                         0.00926    0.00926    0.00926    0.00926    0.00926    0.00926
                         0.00926    0.00926    0.00926    0.00926    0.00463    0.00926
                         0.00926    0.00463    0.00926    0.00926    0.00926    0.00926
                         0.00926    0.00926    0.00926    0.00926    0.00926    0.00926
                         0.00926    0.00926    0.00926    0.00926    0.00926    0.00926
                         0.00926    0.00926    0.00926    0.00926    0.00926    0.00926
                         0.00926    0.00926    0.00926    0.00926    0.00926    0.00926
                         0.00926    0.00926
                       outvars : Printing only first  50 k-points.
           xangst      0.0000000000E+00  0.0000000000E+00  0.0000000000E+00
                       0.0000000000E+00  2.5377840000E+00  2.5377840000E+00
                       2.5377840000E+00  0.0000000000E+00  2.5377840000E+00
                       2.5377840000E+00  2.5377840000E+00  0.0000000000E+00
                       1.2688920000E+00  1.2688920000E+00  3.8066760000E+00
                       1.2688920000E+00  3.8066760000E+00  3.8066760000E+00
                       1.2688920000E+00  3.8066760000E+00  1.2688920000E+00
                       1.2688920000E+00  1.2688920000E+00  1.2688920000E+00
                       3.8066760000E+00  1.2688920000E+00  1.2688920000E+00
                       3.8066760000E+00  3.8066760000E+00  1.2688920000E+00
                       3.8066760000E+00  3.8066760000E+00  3.8066760000E+00
                       3.8066760000E+00  1.2688920000E+00  3.8066760000E+00
            xcart      0.0000000000E+00  0.0000000000E+00  0.0000000000E+00
                       0.0000000000E+00  4.7957167444E+00  4.7957167444E+00
                       4.7957167444E+00  0.0000000000E+00  4.7957167444E+00
                       4.7957167444E+00  4.7957167444E+00  0.0000000000E+00
                       2.3978583722E+00  2.3978583722E+00  7.1935751166E+00
                       2.3978583722E+00  7.1935751166E+00  7.1935751166E+00
                       2.3978583722E+00  7.1935751166E+00  2.3978583722E+00
                       2.3978583722E+00  2.3978583722E+00  2.3978583722E+00
                       7.1935751166E+00  2.3978583722E+00  2.3978583722E+00
                       7.1935751166E+00  7.1935751166E+00  2.3978583722E+00
                       7.1935751166E+00  7.1935751166E+00  7.1935751166E+00
                       7.1935751166E+00  2.3978583722E+00  7.1935751166E+00
             xred      0.0000000000E+00  0.0000000000E+00  0.0000000000E+00
                       0.0000000000E+00  5.0000000000E-01  5.0000000000E-01
                       5.0000000000E-01  0.0000000000E+00  5.0000000000E-01
                       5.0000000000E-01  5.0000000000E-01  0.0000000000E+00
                       2.5000000000E-01  2.5000000000E-01  7.5000000000E-01
                       2.5000000000E-01  7.5000000000E-01  7.5000000000E-01
                       2.5000000000E-01  7.5000000000E-01  2.5000000000E-01
                       2.5000000000E-01  2.5000000000E-01  2.5000000000E-01
                       7.5000000000E-01  2.5000000000E-01  2.5000000000E-01
                       7.5000000000E-01  7.5000000000E-01  2.5000000000E-01
                       7.5000000000E-01  7.5000000000E-01  7.5000000000E-01
                       7.5000000000E-01  2.5000000000E-01  7.5000000000E-01
            znucl       72.00000    8.00000
 
================================================================================
 
 chkinp: Checking input parameters for consistency, jdtset=   1.
 
 chkinp: Checking input parameters for consistency, jdtset=   2.
 
 chkinp: Checking input parameters for consistency, jdtset=   3.
 
================================================================================
== DATASET  1 ==================================================================
-   mpi_nproc: 36, omp_nthreads: -1 (-1 if OMP is not activated)
-    --> not optimal distribution: autoparal keyword recommended in input file <--
 

--- !DatasetInfo
iteration_state: {dtset: 1, }
dimensions: {natom: 12, nkpt: 112, mband: 48, nsppol: 1, nspinor: 1, nspden: 1, mpw: 6140, }
cutoff_energies: {ecut:  25.0, pawecutdg:  30.0, }
electrons: {nelect:   9.60000000E+01, charge:   0.00000000E+00, occopt:   1.00000000E+00, tsmear:   1.00000000E-02, }
meta: {optdriver: 0, ionmov: 0, optcell: 0, iscf: 7, paral_kgb: 0, }
...

 Exchange-correlation functional for the present dataset will be:
  GGA: Perdew-Burke-Ernzerhof functional - ixc=11
 Citation for XC functional:
  J.P.Perdew, K.Burke, M.Ernzerhof, PRL 77, 3865 (1996)
 
 Real(R)+Recip(G) space primitive vectors, cartesian coordinates (Bohr,Bohr^-1):
 R(1)=  9.5914335  0.0000000  0.0000000  G(1)=  0.1042597  0.0000000  0.0000000
 R(2)=  0.0000000  9.5914335  0.0000000  G(2)=  0.0000000  0.1042597  0.0000000
 R(3)=  0.0000000  0.0000000  9.5914335  G(3)=  0.0000000  0.0000000  0.1042597
 Unit cell volume ucvol=  8.8236964E+02 bohr^3
 Angles (23,13,12)=  9.00000000E+01  9.00000000E+01  9.00000000E+01 degrees
 
 getcut: wavevector=  0.0000  0.0000  0.0000  ngfft=  48  48  48
         ecut(hartree)=     27.563   => boxcut(ratio)=   2.11755
 
--- Pseudopotential description ------------------------------------------------
- pspini: atom type   1  psp file is /workspace/jiahaoz/PACKAGE_INSTALL/abinit-9.4.1/pbe_s_sr/Hf.psp8
- pspatm: opening atomic psp file    /workspace/jiahaoz/PACKAGE_INSTALL/abinit-9.4.1/pbe_s_sr/Hf.psp8
- Hf    ONCVPSP  r_core=  1.72  1.72  1.72  2.43
- 72.00000  12.00000    160625                znucl, zion, pspdat
    8   11    3    4       600   0.00000      pspcod,pspxc,lmax,lloc,mmax,r2well
    5.99000000000000    5.40000000000000    0.00000000000000   rchrg,fchrg,qchrg
     nproj     2     2     2     2
     extension_switch     1
  pspatm : epsatm=   21.98649506
         --- l  ekb(1:nproj) -->
             0    5.812335   -0.521211
             1   -3.038329    2.466565
             2    2.060039    0.471534
             3    9.947446    0.353012
 pspatm: atomic psp has been read  and splines computed
 
- pspini: atom type   2  psp file is /workspace/jiahaoz/PACKAGE_INSTALL/abinit-9.4.1/pbe_s_sr/O.psp8
- pspatm: opening atomic psp file    /workspace/jiahaoz/PACKAGE_INSTALL/abinit-9.4.1/pbe_s_sr/O.psp8
- O     ONCVPSP  r_core=  1.36  1.46  1.26
-  8.00000   6.00000    151103                znucl, zion, pspdat
    8   11    2    4       600   0.00000      pspcod,pspxc,lmax,lloc,mmax,r2well
    5.99000000000000    4.00000000000000    0.00000000000000   rchrg,fchrg,qchrg
     nproj     2     2     1
     extension_switch     1
  pspatm : epsatm=    6.19401560
         --- l  ekb(1:nproj) -->
             0    5.257212    0.704241
             1   -5.135443   -1.451781
             2   -4.371486
 pspatm: atomic psp has been read  and splines computed
 
   1.31998181E+04                                ecore*ucvol(ha*bohr**3)
--------------------------------------------------------------------------------
 
_setup2: Arith. and geom. avg. npw (full set) are    6094.560    6094.525
 
================================================================================

--- !BeginCycle
iteration_state: {dtset: 1, }
solver: {iscf: 7, nstep: 100, nline: 4, wfoptalg: 0, }
tolerances: {toldfe: 1.00E-13, }
...
 
     iter   Etot(hartree)      deltaE(h)  residm     vres2
 ETOT  1  -357.45174341816    -3.575E+02 2.912E-01 1.405E+03
 ETOT  2  -357.90987153059    -4.581E-01 8.627E-02 1.193E+03
 ETOT  3  -358.58215094749    -6.723E-01 1.895E-02 7.881E+01
 ETOT  4  -358.62035865982    -3.821E-02 1.062E-02 7.662E-02
 ETOT  5  -358.62048958330    -1.309E-04 5.245E-03 5.323E-02
 ETOT  6  -358.62052217855    -3.260E-05 6.850E-05 1.104E-03
 ETOT  7  -358.62052286032    -6.818E-07 1.782E-05 6.021E-05
 ETOT  8  -358.62052293975    -7.943E-08 4.168E-07 2.286E-06
 ETOT  9  -358.62052294367    -3.919E-09 1.087E-07 1.065E-07
 ETOT 10  -358.62052294400    -3.246E-10 3.077E-09 1.353E-09
 ETOT 11  -358.62052294402    -2.638E-11 8.399E-10 1.227E-11
 ETOT 12  -358.62052294402    -1.478E-12 2.403E-11 2.303E-13
 ETOT 13  -358.62052294402    -1.478E-12 4.635E-12 2.960E-14
 ETOT 14  -358.62052294402     5.116E-13 1.808E-13 4.088E-15
 ETOT 15  -358.62052294402     9.152E-12 5.270E-14 6.716E-17
 ETOT 16  -358.62052294404    -2.080E-11 1.486E-15 2.995E-18
 ETOT 17  -358.62052294403     2.785E-12 3.945E-16 9.772E-20
 ETOT 18  -358.62052294403    -3.411E-13 1.245E-17 2.617E-20
 ETOT 19  -358.62052294403     1.023E-12 3.419E-18 5.615E-22
 ETOT 20  -358.62052294403    -3.411E-13 1.086E-19 2.565E-22
 ETOT 21  -358.62052294403     6.253E-13 2.983E-20 1.063E-22
 ETOT 22  -358.62052294403     1.137E-13 9.500E-22 6.552E-23
 ETOT 23  -358.62052294403     1.137E-13 2.609E-22 5.473E-23
 ETOT 24  -358.62052294403     1.705E-13 8.330E-24 5.086E-23
 ETOT 25  -358.62052294403     1.137E-13 2.287E-24 4.529E-23
 ETOT 26  -358.62052294403     1.137E-13 7.317E-26 4.400E-23
 ETOT 27  -358.62052294403     1.080E-12 2.011E-26 5.192E-23
 ETOT 28  -358.62052294403    -5.684E-13 6.514E-28 5.167E-23
 ETOT 29  -358.62052294403    -2.842E-13 1.778E-28 4.722E-23
 ETOT 30  -358.62052294403     5.684E-14 2.193E-29 4.788E-23
 ETOT 31  -358.62052294403     5.684E-14 1.822E-29 4.247E-23
 
 At SCF step   31, etot is converged : 
  for the second time, diff in etot=  5.684E-14 < toldfe=  1.000E-13
 
 Cartesian components of stress tensor (hartree/bohr^3)
  sigma(1 1)= -1.05590511E-04  sigma(3 2)=  0.00000000E+00
  sigma(2 2)= -1.05590511E-04  sigma(3 1)=  0.00000000E+00
  sigma(3 3)= -1.05590511E-04  sigma(2 1)=  0.00000000E+00
 

--- !ResultsGS
iteration_state: {dtset: 1, }
comment   : Summary of ground state results
lattice_vectors:
- [  9.5914335,   0.0000000,   0.0000000, ]
- [  0.0000000,   9.5914335,   0.0000000, ]
- [  0.0000000,   0.0000000,   9.5914335, ]
lattice_lengths: [   9.59143,    9.59143,    9.59143, ]
lattice_angles: [ 90.000,  90.000,  90.000, ] # degrees, (23, 13, 12)
lattice_volume:   8.8236964E+02
convergence: {deltae:  5.684E-14, res2:  4.247E-23, residm:  1.822E-29, diffor: null, }
etotal    :  -3.58620523E+02
entropy   :   0.00000000E+00
fermie    :   2.97173406E-01
cartesian_stress_tensor: # hartree/bohr^3
- [ -1.05590511E-04,   0.00000000E+00,   0.00000000E+00, ]
- [  0.00000000E+00,  -1.05590511E-04,   0.00000000E+00, ]
- [  0.00000000E+00,   0.00000000E+00,  -1.05590511E-04, ]
pressure_GPa:   3.1066E+00
xred      :
- [  0.0000E+00,   0.0000E+00,   0.0000E+00, Hf]
- [  0.0000E+00,   5.0000E-01,   5.0000E-01, Hf]
- [  5.0000E-01,   0.0000E+00,   5.0000E-01, Hf]
- [  5.0000E-01,   5.0000E-01,   0.0000E+00, Hf]
- [  2.5000E-01,   2.5000E-01,   7.5000E-01,  O]
- [  2.5000E-01,   7.5000E-01,   7.5000E-01,  O]
- [  2.5000E-01,   7.5000E-01,   2.5000E-01,  O]
- [  2.5000E-01,   2.5000E-01,   2.5000E-01,  O]
- [  7.5000E-01,   2.5000E-01,   2.5000E-01,  O]
- [  7.5000E-01,   7.5000E-01,   2.5000E-01,  O]
- [  7.5000E-01,   7.5000E-01,   7.5000E-01,  O]
- [  7.5000E-01,   2.5000E-01,   7.5000E-01,  O]
cartesian_forces: # hartree/bohr
- [  3.08148791E-32,   1.02716264E-32,   8.21730110E-33, ]
- [  3.08148791E-32,   1.02716264E-32,   8.21730110E-33, ]
- [  3.08148791E-32,   1.02716264E-32,   8.21730110E-33, ]
- [  3.08148791E-32,   1.02716264E-32,   8.21730110E-33, ]
- [  2.01913378E-16,   2.01913378E-16,  -2.01913378E-16, ]
- [  2.01913378E-16,  -2.01913378E-16,  -2.01913378E-16, ]
- [  2.01913378E-16,  -2.01913378E-16,   2.01913378E-16, ]
- [  2.01913378E-16,   2.01913378E-16,   2.01913378E-16, ]
- [ -2.01913378E-16,   2.01913378E-16,   2.01913378E-16, ]
- [ -2.01913378E-16,  -2.01913378E-16,   2.01913378E-16, ]
- [ -2.01913378E-16,  -2.01913378E-16,  -2.01913378E-16, ]
- [ -2.01913378E-16,   2.01913378E-16,  -2.01913378E-16, ]
force_length_stats: {min:   3.35050313E-32, max:   3.49724230E-16, mean:   2.33149486E-16, }
...

 Integrated electronic density in atomic spheres:
 ------------------------------------------------
 Atom  Sphere_radius  Integrated_density
    1        2.00000          8.25961821
    2        2.00000          8.25961821
    3        2.00000          8.25961821
    4        2.00000          8.25961821
    5        2.00000          6.34062201
    6        2.00000          6.34062201
    7        2.00000          6.34062201
    8        2.00000          6.34062201
    9        2.00000          6.34062201
   10        2.00000          6.34062201
   11        2.00000          6.34062201
   12        2.00000          6.34062201
================================================================================
 
 ----iterations are completed or convergence reached----
 
 Mean square residual over all n,k,spin=   17.729E-31; max=  18.222E-30
 reduced coordinates (array xred) for   12 atoms
       0.000000000000      0.000000000000      0.000000000000
       0.000000000000      0.500000000000      0.500000000000
       0.500000000000      0.000000000000      0.500000000000
       0.500000000000      0.500000000000      0.000000000000
       0.250000000000      0.250000000000      0.750000000000
       0.250000000000      0.750000000000      0.750000000000
       0.250000000000      0.750000000000      0.250000000000
       0.250000000000      0.250000000000      0.250000000000
       0.750000000000      0.250000000000      0.250000000000
       0.750000000000      0.750000000000      0.250000000000
       0.750000000000      0.750000000000      0.750000000000
       0.750000000000      0.250000000000      0.750000000000
 rms dE/dt=  1.5813E-15; max dE/dt=  1.9366E-15; dE/dt below (all hartree)
    1       0.000000000000      0.000000000000      0.000000000000
    2       0.000000000000      0.000000000000      0.000000000000
    3       0.000000000000      0.000000000000      0.000000000000
    4       0.000000000000      0.000000000000      0.000000000000
    5      -0.000000000000     -0.000000000000      0.000000000000
    6      -0.000000000000      0.000000000000      0.000000000000
    7      -0.000000000000      0.000000000000     -0.000000000000
    8      -0.000000000000     -0.000000000000     -0.000000000000
    9       0.000000000000     -0.000000000000     -0.000000000000
   10       0.000000000000      0.000000000000     -0.000000000000
   11       0.000000000000      0.000000000000      0.000000000000
   12       0.000000000000     -0.000000000000      0.000000000000
 
 cartesian coordinates (angstrom) at end:
    1      0.00000000000000     0.00000000000000     0.00000000000000
    2      0.00000000000000     2.53778400000000     2.53778400000000
    3      2.53778400000000     0.00000000000000     2.53778400000000
    4      2.53778400000000     2.53778400000000     0.00000000000000
    5      1.26889200000000     1.26889200000000     3.80667600000000
    6      1.26889200000000     3.80667600000000     3.80667600000000
    7      1.26889200000000     3.80667600000000     1.26889200000000
    8      1.26889200000000     1.26889200000000     1.26889200000000
    9      3.80667600000000     1.26889200000000     1.26889200000000
   10      3.80667600000000     3.80667600000000     1.26889200000000
   11      3.80667600000000     3.80667600000000     3.80667600000000
   12      3.80667600000000     1.26889200000000     3.80667600000000
 
 cartesian forces (hartree/bohr) at end:
    1      0.00000000000000     0.00000000000000     0.00000000000000
    2      0.00000000000000     0.00000000000000     0.00000000000000
    3      0.00000000000000     0.00000000000000     0.00000000000000
    4      0.00000000000000     0.00000000000000     0.00000000000000
    5      0.00000000000000     0.00000000000000    -0.00000000000000
    6      0.00000000000000    -0.00000000000000    -0.00000000000000
    7      0.00000000000000    -0.00000000000000     0.00000000000000
    8      0.00000000000000     0.00000000000000     0.00000000000000
    9     -0.00000000000000     0.00000000000000     0.00000000000000
   10     -0.00000000000000    -0.00000000000000     0.00000000000000
   11     -0.00000000000000    -0.00000000000000    -0.00000000000000
   12     -0.00000000000000     0.00000000000000    -0.00000000000000
 frms,max,avg= 1.6486158E-16 2.0191338E-16   0.000E+00  0.000E+00  0.000E+00 h/b
 
 cartesian forces (eV/Angstrom) at end:
    1      0.00000000000000     0.00000000000000     0.00000000000000
    2      0.00000000000000     0.00000000000000     0.00000000000000
    3      0.00000000000000     0.00000000000000     0.00000000000000
    4      0.00000000000000     0.00000000000000     0.00000000000000
    5      0.00000000000001     0.00000000000001    -0.00000000000001
    6      0.00000000000001    -0.00000000000001    -0.00000000000001
    7      0.00000000000001    -0.00000000000001     0.00000000000001
    8      0.00000000000001     0.00000000000001     0.00000000000001
    9     -0.00000000000001     0.00000000000001     0.00000000000001
   10     -0.00000000000001    -0.00000000000001     0.00000000000001
   11     -0.00000000000001    -0.00000000000001    -0.00000000000001
   12     -0.00000000000001     0.00000000000001    -0.00000000000001
 frms,max,avg= 8.4775227E-15 1.0382802E-14   0.000E+00  0.000E+00  0.000E+00 e/A
 length scales=  9.591433488838  9.591433488838  9.591433488838 bohr
              =  5.075568000000  5.075568000000  5.075568000000 angstroms
 Fermi (or HOMO) energy (hartree) =   0.29717   Average Vxc (hartree)=  -0.44631
 Eigenvalues (hartree) for nkpt= 112  k points:
 kpt#   1, nband= 48, wtk=  0.00463, kpt=  0.0000  0.0000  0.0000 (reduced coord)
  -1.94954   -1.94888   -1.94888   -1.94888   -0.80773   -0.80773   -0.80773   -0.79548
  -0.79548   -0.79548   -0.79548   -0.79548   -0.79548   -0.79098   -0.79098   -0.79098
  -0.39216   -0.32951   -0.32951   -0.32951   -0.31398   -0.31398   -0.31398   -0.28179
   0.06070    0.06070    0.06070    0.10106    0.10106    0.10106    0.17012    0.17012
   0.17012    0.17012    0.17012    0.17012    0.24089    0.24089    0.24089    0.24089
   0.24089    0.24089    0.27637    0.27637    0.27637    0.29717    0.29717    0.29717
 prteigrs : prtvol=0 or 1, do not print more k-points.
 

--- !EnergyTerms
iteration_state     : {dtset: 1, }
comment             : Components of total free energy in Hartree
kinetic             :  1.45828763902528E+02
hartree             :  5.52458148639274E+01
xc                  : -9.08225856021019E+01
Ewald energy        : -2.71022790617946E+02
psp_core            :  1.49595106529080E+01
local_psp           : -2.03731796677949E+02
non_local_psp       : -9.07743946539707E+00
total_energy        : -3.58620522944031E+02
total_energy_eV     : -9.75856070990398E+03
band_energy         : -3.08748989465262E+01
...

 
 Cartesian components of stress tensor (hartree/bohr^3)
  sigma(1 1)= -1.05590511E-04  sigma(3 2)=  0.00000000E+00
  sigma(2 2)= -1.05590511E-04  sigma(3 1)=  0.00000000E+00
  sigma(3 3)= -1.05590511E-04  sigma(2 1)=  0.00000000E+00
 
-Cartesian components of stress tensor (GPa)         [Pressure=  3.1066E+00 GPa]
- sigma(1 1)= -3.10657957E+00  sigma(3 2)=  0.00000000E+00
- sigma(2 2)= -3.10657957E+00  sigma(3 1)=  0.00000000E+00
- sigma(3 3)= -3.10657957E+00  sigma(2 1)=  0.00000000E+00
 
================================================================================
== DATASET  2 ==================================================================
-   mpi_nproc: 36, omp_nthreads: -1 (-1 if OMP is not activated)
-    --> not optimal distribution: autoparal keyword recommended in input file <--
 

--- !DatasetInfo
iteration_state: {dtset: 2, }
dimensions: {natom: 12, nkpt: 112, mband: 48, nsppol: 1, nspinor: 1, nspden: 1, mpw: 6140, }
cutoff_energies: {ecut:  25.0, pawecutdg:  30.0, }
electrons: {nelect:   9.60000000E+01, charge:   0.00000000E+00, occopt:   1.00000000E+00, tsmear:   1.00000000E-02, }
meta: {optdriver: 0, ionmov: 0, optcell: 0, iscf: -2, paral_kgb: 0, }
...

 mkfilename : getwfk/=0, take file _WFK from output of DATASET   1.
 
 mkfilename : getden/=0, take file _DEN from output of DATASET   1.
 
 Exchange-correlation functional for the present dataset will be:
  GGA: Perdew-Burke-Ernzerhof functional - ixc=11
 Citation for XC functional:
  J.P.Perdew, K.Burke, M.Ernzerhof, PRL 77, 3865 (1996)
 
 Real(R)+Recip(G) space primitive vectors, cartesian coordinates (Bohr,Bohr^-1):
 R(1)=  9.5914335  0.0000000  0.0000000  G(1)=  0.1042597  0.0000000  0.0000000
 R(2)=  0.0000000  9.5914335  0.0000000  G(2)=  0.0000000  0.1042597  0.0000000
 R(3)=  0.0000000  0.0000000  9.5914335  G(3)=  0.0000000  0.0000000  0.1042597
 Unit cell volume ucvol=  8.8236964E+02 bohr^3
 Angles (23,13,12)=  9.00000000E+01  9.00000000E+01  9.00000000E+01 degrees
 
 getcut: wavevector=  0.0000  0.0000  0.0000  ngfft=  48  48  48
         ecut(hartree)=     27.563   => boxcut(ratio)=   2.11755
--------------------------------------------------------------------------------
 
-inwffil : will read wavefunctions from disk file o_DS1_WFK.nc
  initberry: for direction 1, nkstr =   6, nstr =     36
  initberry: for direction 2, nkstr =   6, nstr =     36
  initberry: for direction 3, nkstr =   6, nstr =     36
 
================================================================================
 Non-SCF case, kpt    1 (  0.00000  0.00000  0.00000), residuals and eigenvalues=
  3.53E-30  3.54E-30  8.57E-30  9.85E-30  2.13E-30  1.86E-30  2.61E-30  1.65E-30
  2.15E-30  1.32E-30  1.39E-30  1.81E-30  1.56E-30  2.09E-30  1.73E-30  1.45E-30
  1.05E-30  9.03E-31  8.11E-31  1.96E-30  1.28E-30  1.34E-30  1.34E-30  7.63E-31
  2.68E-30  6.66E-30  2.99E-30  1.69E-30  1.51E-30  1.50E-30  2.00E-30  1.60E-30
  1.56E-30  2.02E-30  1.95E-30  2.37E-30  1.13E-30  1.65E-30  1.10E-30  1.01E-30
  2.14E-30  1.62E-30  2.08E-30  1.67E-30  1.45E-30  3.49E-30  3.38E-30  1.68E-30
 -1.9495E+00 -1.9489E+00 -1.9489E+00 -1.9489E+00 -8.0773E-01 -8.0773E-01
 -8.0773E-01 -7.9548E-01 -7.9548E-01 -7.9548E-01 -7.9548E-01 -7.9548E-01
 -7.9548E-01 -7.9098E-01 -7.9098E-01 -7.9098E-01 -3.9216E-01 -3.2951E-01
 -3.2951E-01 -3.2951E-01 -3.1398E-01 -3.1398E-01 -3.1398E-01 -2.8179E-01
  6.0705E-02  6.0705E-02  6.0705E-02  1.0106E-01  1.0106E-01  1.0106E-01
  1.7012E-01  1.7012E-01  1.7012E-01  1.7012E-01  1.7012E-01  1.7012E-01
  2.4089E-01  2.4089E-01  2.4089E-01  2.4089E-01  2.4089E-01  2.4089E-01
  2.7637E-01  2.7637E-01  2.7637E-01  2.9717E-01  2.9717E-01  2.9717E-01
 prteigrs : prtvol=0 or 1, do not print more k-points.
 
 
 
 Computing the polarization (Berry phase) for reciprocal vector:
  0.16667  0.00000  0.00000 (in reduced coordinates)
  0.01738  0.00000  0.00000 (in cartesian coordinates - atomic units)
 Number of strings:    36
 Number of k points in string:    6
 
 Computing the ddk (Berry phase) for reciprocal vector:
  0.16667  0.00000  0.00000 (in reduced coordinates)
  0.01738  0.00000  0.00000 (in cartesian coordinates - atomic units)
 Mean square residual over all n,k,spin=   0.0000E+00; max=  0.0000E+00
 
 Computing the polarization (Berry phase) for reciprocal vector:
  0.00000  0.16667  0.00000 (in reduced coordinates)
  0.00000  0.01738  0.00000 (in cartesian coordinates - atomic units)
 Number of strings:    36
 Number of k points in string:    6
 
 Computing the ddk (Berry phase) for reciprocal vector:
  0.00000  0.16667  0.00000 (in reduced coordinates)
  0.00000  0.01738  0.00000 (in cartesian coordinates - atomic units)
 Mean square residual over all n,k,spin=   0.0000E+00; max=  0.0000E+00
 
 Computing the polarization (Berry phase) for reciprocal vector:
  0.00000  0.00000  0.16667 (in reduced coordinates)
  0.00000  0.00000  0.01738 (in cartesian coordinates - atomic units)
 Number of strings:    36
 Number of k points in string:    6
 
 Computing the ddk (Berry phase) for reciprocal vector:
  0.00000  0.00000  0.16667 (in reduced coordinates)
  0.00000  0.00000  0.01738 (in cartesian coordinates - atomic units)
 Mean square residual over all n,k,spin=   0.0000E+00; max=  0.0000E+00
 
 Polarization in cartesian coordinates (a.u.):
 (the sum of the electronic and ionic Berry phase has been folded into [-1, 1])
     Electronic berry phase:        0.000000000E+00   0.000000000E+00   0.000000000E+00
     Ionic:                         0.000000000E+00   0.000000000E+00   0.000000000E+00  
     Total:                         0.000000000E+00   0.000000000E+00   0.000000000E+00
 
 Polarization in cartesian coordinates (C/m^2):
 (the sum of the electronic and ionic Berry phase has been folded into [-1, 1])
     Electronic berry phase:        0.000000000E+00   0.000000000E+00   0.000000000E+00
     Ionic:                         0.000000000E+00   0.000000000E+00   0.000000000E+00  
     Total:                         0.000000000E+00   0.000000000E+00   0.000000000E+00

--- !ResultsGS
iteration_state: {dtset: 2, }
comment   : Summary of ground state results
lattice_vectors:
- [  9.5914335,   0.0000000,   0.0000000, ]
- [  0.0000000,   9.5914335,   0.0000000, ]
- [  0.0000000,   0.0000000,   9.5914335, ]
lattice_lengths: [   9.59143,    9.59143,    9.59143, ]
lattice_angles: [ 90.000,  90.000,  90.000, ] # degrees, (23, 13, 12)
lattice_volume:   8.8236964E+02
convergence: {deltae:  0.000E+00, res2:  0.000E+00, residm:  2.737E-29, diffor:  0.000E+00, }
etotal    :  -3.58620523E+02
entropy   :   0.00000000E+00
fermie    :   2.97173406E-01
cartesian_stress_tensor: null
pressure_GPa: null
xred      :
- [  0.0000E+00,   0.0000E+00,   0.0000E+00, Hf]
- [  0.0000E+00,   5.0000E-01,   5.0000E-01, Hf]
- [  5.0000E-01,   0.0000E+00,   5.0000E-01, Hf]
- [  5.0000E-01,   5.0000E-01,   0.0000E+00, Hf]
- [  2.5000E-01,   2.5000E-01,   7.5000E-01,  O]
- [  2.5000E-01,   7.5000E-01,   7.5000E-01,  O]
- [  2.5000E-01,   7.5000E-01,   2.5000E-01,  O]
- [  2.5000E-01,   2.5000E-01,   2.5000E-01,  O]
- [  7.5000E-01,   2.5000E-01,   2.5000E-01,  O]
- [  7.5000E-01,   7.5000E-01,   2.5000E-01,  O]
- [  7.5000E-01,   7.5000E-01,   7.5000E-01,  O]
- [  7.5000E-01,   2.5000E-01,   7.5000E-01,  O]
cartesian_forces: null
force_length_stats: {min: null, max: null, mean: null, }
...

 Integrated electronic density in atomic spheres:
 ------------------------------------------------
 Atom  Sphere_radius  Integrated_density
    1        2.00000          8.25961821
    2        2.00000          8.25961821
    3        2.00000          8.25961821
    4        2.00000          8.25961821
    5        2.00000          6.34062201
    6        2.00000          6.34062201
    7        2.00000          6.34062201
    8        2.00000          6.34062201
    9        2.00000          6.34062201
   10        2.00000          6.34062201
   11        2.00000          6.34062201
   12        2.00000          6.34062201
================================================================================
 
 ----iterations are completed or convergence reached----
 
 Mean square residual over all n,k,spin=   27.996E-31; max=  27.369E-30
 reduced coordinates (array xred) for   12 atoms
       0.000000000000      0.000000000000      0.000000000000
       0.000000000000      0.500000000000      0.500000000000
       0.500000000000      0.000000000000      0.500000000000
       0.500000000000      0.500000000000      0.000000000000
       0.250000000000      0.250000000000      0.750000000000
       0.250000000000      0.750000000000      0.750000000000
       0.250000000000      0.750000000000      0.250000000000
       0.250000000000      0.250000000000      0.250000000000
       0.750000000000      0.250000000000      0.250000000000
       0.750000000000      0.750000000000      0.250000000000
       0.750000000000      0.750000000000      0.750000000000
       0.750000000000      0.250000000000      0.750000000000
 
 cartesian coordinates (angstrom) at end:
    1      0.00000000000000     0.00000000000000     0.00000000000000
    2      0.00000000000000     2.53778400000000     2.53778400000000
    3      2.53778400000000     0.00000000000000     2.53778400000000
    4      2.53778400000000     2.53778400000000     0.00000000000000
    5      1.26889200000000     1.26889200000000     3.80667600000000
    6      1.26889200000000     3.80667600000000     3.80667600000000
    7      1.26889200000000     3.80667600000000     1.26889200000000
    8      1.26889200000000     1.26889200000000     1.26889200000000
    9      3.80667600000000     1.26889200000000     1.26889200000000
   10      3.80667600000000     3.80667600000000     1.26889200000000
   11      3.80667600000000     3.80667600000000     3.80667600000000
   12      3.80667600000000     1.26889200000000     3.80667600000000
 length scales=  9.591433488838  9.591433488838  9.591433488838 bohr
              =  5.075568000000  5.075568000000  5.075568000000 angstroms
 Eigenvalues (hartree) for nkpt= 112  k points:
 kpt#   1, nband= 48, wtk=  0.00463, kpt=  0.0000  0.0000  0.0000 (reduced coord)
  -1.94954   -1.94888   -1.94888   -1.94888   -0.80773   -0.80773   -0.80773   -0.79548
  -0.79548   -0.79548   -0.79548   -0.79548   -0.79548   -0.79098   -0.79098   -0.79098
  -0.39216   -0.32951   -0.32951   -0.32951   -0.31398   -0.31398   -0.31398   -0.28179
   0.06070    0.06070    0.06070    0.10106    0.10106    0.10106    0.17012    0.17012
   0.17012    0.17012    0.17012    0.17012    0.24089    0.24089    0.24089    0.24089
   0.24089    0.24089    0.27637    0.27637    0.27637    0.29717    0.29717    0.29717
 prteigrs : prtvol=0 or 1, do not print more k-points.
 
 
================================================================================
== DATASET  3 ==================================================================
-   mpi_nproc: 36, omp_nthreads: -1 (-1 if OMP is not activated)
 

--- !DatasetInfo
iteration_state: {dtset: 3, }
dimensions: {natom: 12, nkpt: 112, mband: 48, nsppol: 1, nspinor: 1, nspden: 1, mpw: 6140, }
cutoff_energies: {ecut:  25.0, pawecutdg:  30.0, }
electrons: {nelect:   9.60000000E+01, charge:   0.00000000E+00, occopt:   1.00000000E+00, tsmear:   1.00000000E-02, }
meta: {optdriver: 1, rfelfd: 3, rfphon: 1, rfstrs: 3, }
...

 mkfilename : getwfk/=0, take file _WFK from output of DATASET   2.
 
 mkfilename : getddk/=0, take file _1WF from output of DATASET   2.
 
 Exchange-correlation functional for the present dataset will be:
  GGA: Perdew-Burke-Ernzerhof functional - ixc=11
 Citation for XC functional:
  J.P.Perdew, K.Burke, M.Ernzerhof, PRL 77, 3865 (1996)
 
 Real(R)+Recip(G) space primitive vectors, cartesian coordinates (Bohr,Bohr^-1):
 R(1)=  9.5914335  0.0000000  0.0000000  G(1)=  0.1042597  0.0000000  0.0000000
 R(2)=  0.0000000  9.5914335  0.0000000  G(2)=  0.0000000  0.1042597  0.0000000
 R(3)=  0.0000000  0.0000000  9.5914335  G(3)=  0.0000000  0.0000000  0.1042597
 Unit cell volume ucvol=  8.8236964E+02 bohr^3
 Angles (23,13,12)=  9.00000000E+01  9.00000000E+01  9.00000000E+01 degrees
 
 getcut: wavevector=  0.0000  0.0000  0.0000  ngfft=  48  48  48
         ecut(hartree)=     27.563   => boxcut(ratio)=   2.11755
--------------------------------------------------------------------------------
 
-inwffil : will read wavefunctions from disk file o_DS2_WFK.nc
 symkchk : k-point set has full space-group symmetry.
 
 ==>  initialize data related to q vector <== 
 
 The list of irreducible perturbations for this q vector is:
    1)    idir= 1    ipert=   1
    2)    idir= 1    ipert=   2
    3)    idir= 2    ipert=   2
    4)    idir= 1    ipert=   5
    5)    idir= 1    ipert=  14
    6)    idir= 1    ipert=  15
    7)    idir= 2    ipert=  15
    8)    idir= 3    ipert=  15
    9)    idir= 1    ipert=  16
   10)    idir= 2    ipert=  16
   11)    idir= 3    ipert=  16
 
================================================================================
 
 The perturbation idir=   2  ipert=   1 is
 symmetric of a previously calculated perturbation.
 So, its SCF calculation is not needed.
 
 
 The perturbation idir=   3  ipert=   1 is
 symmetric of a previously calculated perturbation.
 So, its SCF calculation is not needed.
 
 
 The perturbation idir=   3  ipert=   2 is
 symmetric of a previously calculated perturbation.
 So, its SCF calculation is not needed.
 
 
 The perturbation idir=   1  ipert=   3 is
 symmetric of a previously calculated perturbation.
 So, its SCF calculation is not needed.
 
 
 The perturbation idir=   2  ipert=   3 is
 symmetric of a previously calculated perturbation.
 So, its SCF calculation is not needed.
 
 
 The perturbation idir=   3  ipert=   3 is
 symmetric of a previously calculated perturbation.
 So, its SCF calculation is not needed.
 
 
 The perturbation idir=   1  ipert=   4 is
 symmetric of a previously calculated perturbation.
 So, its SCF calculation is not needed.
 
 
 The perturbation idir=   2  ipert=   4 is
 symmetric of a previously calculated perturbation.
 So, its SCF calculation is not needed.
 
 
 The perturbation idir=   3  ipert=   4 is
 symmetric of a previously calculated perturbation.
 So, its SCF calculation is not needed.
 
 
 The perturbation idir=   2  ipert=   5 is
 symmetric of a previously calculated perturbation.
 So, its SCF calculation is not needed.
 
 
 The perturbation idir=   3  ipert=   5 is
 symmetric of a previously calculated perturbation.
 So, its SCF calculation is not needed.
 
 
 The perturbation idir=   1  ipert=   6 is
 symmetric of a previously calculated perturbation.
 So, its SCF calculation is not needed.
 
 
 The perturbation idir=   2  ipert=   6 is
 symmetric of a previously calculated perturbation.
 So, its SCF calculation is not needed.
 
 
 The perturbation idir=   3  ipert=   6 is
 symmetric of a previously calculated perturbation.
 So, its SCF calculation is not needed.
 
 
 The perturbation idir=   1  ipert=   7 is
 symmetric of a previously calculated perturbation.
 So, its SCF calculation is not needed.
 
 
 The perturbation idir=   2  ipert=   7 is
 symmetric of a previously calculated perturbation.
 So, its SCF calculation is not needed.
 
 
 The perturbation idir=   3  ipert=   7 is
 symmetric of a previously calculated perturbation.
 So, its SCF calculation is not needed.
 
 
 The perturbation idir=   1  ipert=   8 is
 symmetric of a previously calculated perturbation.
 So, its SCF calculation is not needed.
 
 
 The perturbation idir=   2  ipert=   8 is
 symmetric of a previously calculated perturbation.
 So, its SCF calculation is not needed.
 
 
 The perturbation idir=   3  ipert=   8 is
 symmetric of a previously calculated perturbation.
 So, its SCF calculation is not needed.
 
 
 The perturbation idir=   1  ipert=   9 is
 symmetric of a previously calculated perturbation.
 So, its SCF calculation is not needed.
 
 
 The perturbation idir=   2  ipert=   9 is
 symmetric of a previously calculated perturbation.
 So, its SCF calculation is not needed.
 
 
 The perturbation idir=   3  ipert=   9 is
 symmetric of a previously calculated perturbation.
 So, its SCF calculation is not needed.
 
 
 The perturbation idir=   1  ipert=  10 is
 symmetric of a previously calculated perturbation.
 So, its SCF calculation is not needed.
 
 
 The perturbation idir=   2  ipert=  10 is
 symmetric of a previously calculated perturbation.
 So, its SCF calculation is not needed.
 
 
 The perturbation idir=   3  ipert=  10 is
 symmetric of a previously calculated perturbation.
 So, its SCF calculation is not needed.
 
 
 The perturbation idir=   1  ipert=  11 is
 symmetric of a previously calculated perturbation.
 So, its SCF calculation is not needed.
 
 
 The perturbation idir=   2  ipert=  11 is
 symmetric of a previously calculated perturbation.
 So, its SCF calculation is not needed.
 
 
 The perturbation idir=   3  ipert=  11 is
 symmetric of a previously calculated perturbation.
 So, its SCF calculation is not needed.
 
 
 The perturbation idir=   1  ipert=  12 is
 symmetric of a previously calculated perturbation.
 So, its SCF calculation is not needed.
 
 
 The perturbation idir=   2  ipert=  12 is
 symmetric of a previously calculated perturbation.
 So, its SCF calculation is not needed.
 
 
 The perturbation idir=   3  ipert=  12 is
 symmetric of a previously calculated perturbation.
 So, its SCF calculation is not needed.
 
 
 The perturbation idir=   2  ipert=  14 is
 symmetric of a previously calculated perturbation.
 So, its SCF calculation is not needed.
 
 
 The perturbation idir=   3  ipert=  14 is
 symmetric of a previously calculated perturbation.
 So, its SCF calculation is not needed.
 
 
--------------------------------------------------------------------------------
 Perturbation wavevector (in red.coord.)   0.000000  0.000000  0.000000
 Perturbation : displacement of atom   1   along direction   1
 Found     8 symmetries that leave the perturbation invariant.
 symkpt : the number of k-points, thanks to the symmetries,
 is reduced to    40 .
 
--------------------------------------------------------------------------------
 
-inwffil : will read wavefunctions from disk file o_DS2_WFK.nc
--------------------------------------------------------------------------------
 
 Initialisation of the first-order wave-functions :
  ireadwf=   0

--- !BeginCycle
iteration_state: {dtset: 3, }
solver: {iscf: 7, nstep: 100, nline: 4, wfoptalg: 0, }
tolerances: {tolvrs: 1.00E-13, }
...
 
     iter   2DEtotal(Ha)        deltaE(Ha) residm    vres2
-ETOT  1   17.787468575114     -3.380E+03 8.774E+00 1.282E+04
 ETOT  2   13.585913954543     -4.202E+00 2.443E-02 3.378E+02
 ETOT  3   13.899970404385      3.141E-01 2.876E-03 1.784E+03
 ETOT  4   13.152256054726     -7.477E-01 6.077E-04 2.393E+01
 ETOT  5   13.146005743863     -6.250E-03 1.370E-04 6.270E-01
 ETOT  6   13.145802999733     -2.027E-04 1.083E-06 1.320E-02
 ETOT  7   13.145793287612     -9.712E-06 1.106E-07 3.544E-04
 ETOT  8   13.145793207440     -8.017E-08 3.628E-09 9.237E-05
 ETOT  9   13.145793169824     -3.762E-08 5.974E-10 2.307E-05
 ETOT 10   13.145793149693     -2.013E-08 3.667E-11 3.136E-07
 ETOT 11   13.145793149547     -1.460E-10 5.370E-12 7.158E-09
 ETOT 12   13.145793149530     -1.728E-11 1.028E-13 1.071E-09
 ETOT 13   13.145793149539      9.550E-12 1.277E-14 1.936E-11
 ETOT 14   13.145793149529     -1.000E-11 6.464E-16 8.984E-13
 ETOT 15   13.145793149535      5.457E-12 4.659E-17 1.310E-14
 
 At SCF step   15       vres2   =  1.31E-14 < tolvrs=  1.00E-13 =>converged.
-open ddk wf file :o_DS2_1WF37.nc
-open ddk wf file :o_DS2_1WF38.nc
-open ddk wf file :o_DS2_1WF39.nc
================================================================================
 
 ----iterations are completed or convergence reached----
 
 Mean square residual over all n,k,spin=   23.158E-20; max=  46.586E-18
 
 Thirteen components of 2nd-order total energy (hartree) are
 1,2,3: 0th-order hamiltonian combined with 1st-order wavefunctions
     kin0=   3.45505961E+03 eigvalue=   7.28236014E+02  local=  -2.57026009E+03
 4,5,6: 1st-order hamiltonian combined with 1st and 0th-order wfs
 loc psp =  -4.82205356E+03  Hartree=   1.21350029E+03     xc=  -2.37503012E+02
 note that "loc psp" includes a xc core correction that could be resolved
 7,8,9: eventually, occupation + non-local contributions
    edocc=   0.00000000E+00     enl0=   7.95675661E+02   enl1=  -1.94736338E+03
 1-9 gives the relaxation energy (to be shifted if some occ is /=2.0)
   erelax=  -3.38470847E+03
 10,11,12 Non-relaxation  contributions : frozen-wavefunctions and Ewald
 fr.local=   1.86723566E+03 fr.nonlo=   9.83884863E+02  Ewald=   4.40215796E+02
 13,14 Frozen wf xc core corrections (1) and (2)
 frxc 1  =  -4.09543069E+02  frxc 2 =   5.16061010E+02
 Resulting in :
 2DEtotal=    0.1314579315E+02 Ha. Also 2DEtotal=    0.357715223536E+03 eV
    (2DErelax=   -3.3847084715E+03 Ha. 2DEnonrelax=    3.3978542646E+03 Ha)
    (  non-var. 2DEtotal :    1.3145793199E+01 Ha)
 
 
--------------------------------------------------------------------------------
 Perturbation wavevector (in red.coord.)   0.000000  0.000000  0.000000
 Perturbation : displacement of atom   2   along direction   1
 Found     8 symmetries that leave the perturbation invariant.
 symkpt : the number of k-points, thanks to the symmetries,
 is reduced to    40 .
 
--------------------------------------------------------------------------------
 
-inwffil : will read wavefunctions from disk file o_DS2_WFK.nc
--------------------------------------------------------------------------------
 
 Initialisation of the first-order wave-functions :
  ireadwf=   0

--- !BeginCycle
iteration_state: {dtset: 3, }
solver: {iscf: 7, nstep: 100, nline: 4, wfoptalg: 0, }
tolerances: {tolvrs: 1.00E-13, }
...
 
     iter   2DEtotal(Ha)        deltaE(Ha) residm    vres2
-ETOT  1   17.782391301387     -3.380E+03 1.176E+01 1.282E+04
 ETOT  2   13.586060549750     -4.196E+00 2.424E-02 3.378E+02
 ETOT  3   13.900194369553      3.141E-01 3.086E-03 1.784E+03
 ETOT  4   13.152253196099     -7.479E-01 6.078E-04 2.392E+01
 ETOT  5   13.146005071709     -6.248E-03 1.371E-04 6.244E-01
 ETOT  6   13.145802995541     -2.021E-04 9.249E-07 1.324E-02
 ETOT  7   13.145793293651     -9.702E-06 1.105E-07 3.604E-04
 ETOT  8   13.145793220775     -7.288E-08 3.763E-09 1.046E-04
 ETOT  9   13.145793170297     -5.048E-08 6.065E-10 2.432E-05
 ETOT 10   13.145793149691     -2.061E-08 4.168E-11 2.989E-07
 ETOT 11   13.145793149534     -1.573E-10 5.678E-12 7.226E-09
 ETOT 12   13.145793149523     -1.091E-11 1.042E-13 1.210E-09
 ETOT 13   13.145793149528      5.002E-12 1.911E-14 1.963E-11
 ETOT 14   13.145793149535      6.821E-12 6.548E-16 1.038E-12
 ETOT 15   13.145793149561      2.592E-11 7.185E-17 1.651E-14
 
 At SCF step   15       vres2   =  1.65E-14 < tolvrs=  1.00E-13 =>converged.
-open ddk wf file :o_DS2_1WF37.nc
-open ddk wf file :o_DS2_1WF38.nc
-open ddk wf file :o_DS2_1WF39.nc
================================================================================
 
 ----iterations are completed or convergence reached----
 
 Mean square residual over all n,k,spin=   26.899E-20; max=  71.853E-18
 
 Thirteen components of 2nd-order total energy (hartree) are
 1,2,3: 0th-order hamiltonian combined with 1st-order wavefunctions
     kin0=   3.45505961E+03 eigvalue=   7.28236014E+02  local=  -2.57026009E+03
 4,5,6: 1st-order hamiltonian combined with 1st and 0th-order wfs
 loc psp =  -4.82205356E+03  Hartree=   1.21350029E+03     xc=  -2.37503012E+02
 note that "loc psp" includes a xc core correction that could be resolved
 7,8,9: eventually, occupation + non-local contributions
    edocc=   0.00000000E+00     enl0=   7.95675661E+02   enl1=  -1.94736338E+03
 1-9 gives the relaxation energy (to be shifted if some occ is /=2.0)
   erelax=  -3.38470847E+03
 10,11,12 Non-relaxation  contributions : frozen-wavefunctions and Ewald
 fr.local=   1.86723566E+03 fr.nonlo=   9.83884863E+02  Ewald=   4.40215796E+02
 13,14 Frozen wf xc core corrections (1) and (2)
 frxc 1  =  -4.09543069E+02  frxc 2 =   5.16061010E+02
 Resulting in :
 2DEtotal=    0.1314579315E+02 Ha. Also 2DEtotal=    0.357715223537E+03 eV
    (2DErelax=   -3.3847084715E+03 Ha. 2DEnonrelax=    3.3978542646E+03 Ha)
    (  non-var. 2DEtotal :    1.3145793198E+01 Ha)
 
 
--------------------------------------------------------------------------------
 Perturbation wavevector (in red.coord.)   0.000000  0.000000  0.000000
 Perturbation : displacement of atom   2   along direction   2
 Found     4 symmetries that leave the perturbation invariant.
 symkpt : the number of k-points, thanks to the symmetries,
 is reduced to    64 .
 
--------------------------------------------------------------------------------
 
-inwffil : will read wavefunctions from disk file o_DS2_WFK.nc
--------------------------------------------------------------------------------
 
 Initialisation of the first-order wave-functions :
  ireadwf=   0

--- !BeginCycle
iteration_state: {dtset: 3, }
solver: {iscf: 7, nstep: 100, nline: 4, wfoptalg: 0, }
tolerances: {tolvrs: 1.00E-13, }
...
 
     iter   2DEtotal(Ha)        deltaE(Ha) residm    vres2
-ETOT  1   17.738437710545     -3.380E+03 1.248E+01 1.278E+04
 ETOT  2   13.579638000963     -4.159E+00 2.665E-02 3.316E+02
 ETOT  3   13.896535719486      3.169E-01 2.458E-03 1.775E+03
 ETOT  4   13.152148922322     -7.444E-01 6.050E-04 2.353E+01
 ETOT  5   13.145997378067     -6.152E-03 1.369E-04 5.949E-01
 ETOT  6   13.145802938409     -1.944E-04 7.414E-07 1.315E-02
 ETOT  7   13.145793261686     -9.677E-06 1.088E-07 3.315E-04
 ETOT  8   13.145793168723     -9.296E-08 2.783E-09 6.425E-05
 ETOT  9   13.145793153723     -1.500E-08 5.558E-10 1.370E-05
 ETOT 10   13.145793141336     -1.239E-08 2.905E-11 4.499E-07
 ETOT 11   13.145793141040     -2.951E-10 4.817E-12 5.682E-09
 ETOT 12   13.145793141029     -1.182E-11 1.011E-13 7.384E-10
 ETOT 13   13.145793141030      9.095E-13 1.108E-14 2.660E-11
 ETOT 14   13.145793141022     -7.731E-12 6.317E-16 5.587E-13
 ETOT 15   13.145793141020     -1.364E-12 4.173E-17 9.212E-15
 
 At SCF step   15       vres2   =  9.21E-15 < tolvrs=  1.00E-13 =>converged.
-open ddk wf file :o_DS2_1WF37.nc
-open ddk wf file :o_DS2_1WF38.nc
-open ddk wf file :o_DS2_1WF39.nc
================================================================================
 
 ----iterations are completed or convergence reached----
 
 Mean square residual over all n,k,spin=   21.701E-20; max=  41.728E-18
 
 Thirteen components of 2nd-order total energy (hartree) are
 1,2,3: 0th-order hamiltonian combined with 1st-order wavefunctions
     kin0=   3.45505961E+03 eigvalue=   7.28236014E+02  local=  -2.57026009E+03
 4,5,6: 1st-order hamiltonian combined with 1st and 0th-order wfs
 loc psp =  -4.82205356E+03  Hartree=   1.21350029E+03     xc=  -2.37503012E+02
 note that "loc psp" includes a xc core correction that could be resolved
 7,8,9: eventually, occupation + non-local contributions
    edocc=   0.00000000E+00     enl0=   7.95675661E+02   enl1=  -1.94736338E+03
 1-9 gives the relaxation energy (to be shifted if some occ is /=2.0)
   erelax=  -3.38470847E+03
 10,11,12 Non-relaxation  contributions : frozen-wavefunctions and Ewald
 fr.local=   1.86723566E+03 fr.nonlo=   9.83884863E+02  Ewald=   4.40215796E+02
 13,14 Frozen wf xc core corrections (1) and (2)
 frxc 1  =  -4.09543069E+02  frxc 2 =   5.16061010E+02
 Resulting in :
 2DEtotal=    0.1314579314E+02 Ha. Also 2DEtotal=    0.357715223304E+03 eV
    (2DErelax=   -3.3847084715E+03 Ha. 2DEnonrelax=    3.3978542646E+03 Ha)
    (  non-var. 2DEtotal :    1.3145793176E+01 Ha)
 
 
--------------------------------------------------------------------------------
 Perturbation wavevector (in red.coord.)   0.000000  0.000000  0.000000
 Perturbation : displacement of atom   5   along direction   1
 Found     2 symmetries that leave the perturbation invariant.
 symkpt : the number of k-points, thanks to the symmetries,
 is reduced to    68 .
 
--------------------------------------------------------------------------------
 
-inwffil : will read wavefunctions from disk file o_DS2_WFK.nc
--------------------------------------------------------------------------------
 
 Initialisation of the first-order wave-functions :
  ireadwf=   0

--- !BeginCycle
iteration_state: {dtset: 3, }
solver: {iscf: 7, nstep: 100, nline: 4, wfoptalg: 0, }
tolerances: {tolvrs: 1.00E-13, }
...
 
     iter   2DEtotal(Ha)        deltaE(Ha) residm    vres2
-ETOT  1   20.714140595414     -5.053E+03 2.274E+00 1.348E+04
 ETOT  2   11.045728987420     -9.668E+00 2.450E-01 9.046E+02
 ETOT  3   10.667752381604     -3.780E-01 3.833E-03 3.131E+01
 ETOT  4   10.650643738165     -1.711E-02 5.244E-04 3.102E+00
 ETOT  5   10.649939844659     -7.039E-04 2.796E-05 5.473E-01
 ETOT  6   10.649944966129      5.121E-06 3.711E-06 1.920E-01
 ETOT  7   10.649814321098     -1.306E-04 3.560E-07 1.194E-02
 ETOT  8   10.649807123319     -7.198E-06 4.767E-08 1.354E-03
 ETOT  9   10.649806390881     -7.324E-07 4.463E-09 2.228E-04
 ETOT 10   10.649806226647     -1.642E-07 4.707E-10 2.401E-06
 ETOT 11   10.649806225397     -1.251E-09 5.145E-11 3.310E-07
 ETOT 12   10.649806225288     -1.091E-10 4.583E-12 2.165E-07
 ETOT 13   10.649806225156     -1.319E-10 5.186E-13 5.635E-09
 ETOT 14   10.649806225140     -1.546E-11 7.322E-14 1.135E-10
 ETOT 15   10.649806225147      6.366E-12 1.664E-15 4.688E-11
 ETOT 16   10.649806225143     -3.638E-12 2.799E-16 7.715E-12
 ETOT 17   10.649806225134     -9.095E-12 2.235E-17 4.554E-13
 ETOT 18   10.649806225148      1.364E-11 3.248E-18 6.833E-14
 
 At SCF step   18       vres2   =  6.83E-14 < tolvrs=  1.00E-13 =>converged.
-open ddk wf file :o_DS2_1WF37.nc
-open ddk wf file :o_DS2_1WF38.nc
-open ddk wf file :o_DS2_1WF39.nc
================================================================================
 
 ----iterations are completed or convergence reached----
 
 Mean square residual over all n,k,spin=   22.901E-21; max=  32.485E-19
 
 Thirteen components of 2nd-order total energy (hartree) are
 1,2,3: 0th-order hamiltonian combined with 1st-order wavefunctions
     kin0=   5.94753844E+03 eigvalue=  -2.17722606E+02  local=  -2.02504686E+03
 4,5,6: 1st-order hamiltonian combined with 1st and 0th-order wfs
 loc psp =  -3.25149941E+03  Hartree=   9.46027093E+02     xc=  -2.33151931E+02
 note that "loc psp" includes a xc core correction that could be resolved
 7,8,9: eventually, occupation + non-local contributions
    edocc=   0.00000000E+00     enl0=   6.45426112E+02   enl1=  -6.87464109E+03
 1-9 gives the relaxation energy (to be shifted if some occ is /=2.0)
   erelax=  -5.06307025E+03
 10,11,12 Non-relaxation  contributions : frozen-wavefunctions and Ewald
 fr.local=   1.43981963E+03 fr.nonlo=   3.44615146E+03  Ewald=   2.35829891E+02
 13,14 Frozen wf xc core corrections (1) and (2)
 frxc 1  =  -2.11813657E+02  frxc 2 =   1.63732738E+02
 Resulting in :
 2DEtotal=    0.1064980623E+02 Ha. Also 2DEtotal=    0.289795965227E+03 eV
    (2DErelax=   -5.0630702522E+03 Ha. 2DEnonrelax=    5.0737200585E+03 Ha)
    (  non-var. 2DEtotal :    1.0649806235E+01 Ha)
 
 
--------------------------------------------------------------------------------
 Perturbation wavevector (in red.coord.)   0.000000  0.000000  0.000000
 Perturbation : homogeneous electric field along direction   1
 The set of symmetries contains only one element for this perturbation.
 symkpt : not enough symmetry to change the number of k points.
 
--------------------------------------------------------------------------------
 
-inwffil : will read wavefunctions from disk file o_DS2_WFK.nc
--------------------------------------------------------------------------------
 
 Initialisation of the first-order wave-functions :
  ireadwf=   0
- dfpt_looppert: read the DDK wavefunctions from file: o_DS2_1WF37.nc

--- !BeginCycle
iteration_state: {dtset: 3, }
solver: {iscf: 7, nstep: 100, nline: 4, wfoptalg: 0, }
tolerances: {tolvrs: 1.00E-13, }
...
 
     iter   2DEtotal(Ha)        deltaE(Ha) residm    vres2
-ETOT  1  -120.21859149296     -1.202E+02 8.121E-01 3.109E+03
 ETOT  2  -122.45233045459     -2.234E+00 3.282E-02 8.732E+01
 ETOT  3  -122.52865967707     -7.633E-02 8.737E-04 1.021E+01
 ETOT  4  -122.53477355041     -6.114E-03 3.417E-05 1.555E-01
 ETOT  5  -122.53482497432     -5.142E-05 1.570E-06 5.078E-03
 ETOT  6  -122.53482698939     -2.015E-06 9.279E-08 1.889E-04
 ETOT  7  -122.53482710601     -1.166E-07 9.928E-09 4.029E-06
 ETOT  8  -122.53482710895     -2.940E-09 5.286E-10 4.059E-08
 ETOT  9  -122.53482710901     -6.227E-11 6.167E-11 4.193E-08
 ETOT 10  -122.53482710905     -3.621E-11 3.250E-12 5.756E-10
 ETOT 11  -122.53482710905     -4.832E-13 4.070E-13 3.732E-11
 ETOT 12  -122.53482710905      5.684E-14 2.237E-14 1.221E-11
 ETOT 13  -122.53482710905     -1.421E-14 2.675E-15 1.107E-12
 ETOT 14  -122.53482710905     -5.684E-14 1.496E-16 2.626E-14
 
 At SCF step   14       vres2   =  2.63E-14 < tolvrs=  1.00E-13 =>converged.
-open ddk wf file :o_DS2_1WF37.nc
-open ddk wf file :o_DS2_1WF38.nc
-open ddk wf file :o_DS2_1WF39.nc
================================================================================
 
 ----iterations are completed or convergence reached----
 
 Mean square residual over all n,k,spin=   19.460E-20; max=  14.962E-17
 
 Seven components of 2nd-order total energy (hartree) are
 1,2,3: 0th-order hamiltonian combined with 1st-order wavefunctions
     kin0=   6.06141030E+02 eigvalue=  -8.41999673E+01  local=  -4.09161943E+02
 4,5,6: 1st-order hamiltonian combined with 1st and 0th-order wfs
    dotwf=  -2.45069654E+02  Hartree=   1.10803384E+01     xc=  -8.67431718E+00
 7,8,9: eventually, occupation + non-local contributions
    edocc=   0.00000000E+00     enl0=   7.34968626E+00   enl1=   0.00000000E+00
 1-9 gives the relaxation energy (to be shifted if some occ is /=2.0)
   erelax=  -1.22534827E+02
  No Ewald or frozen-wf contrib.: the relaxation energy is the total one
 2DEtotal=   -0.1225348271E+03 Ha. Also 2DEtotal=   -0.333434221668E+04 eV
    (  non-var. 2DEtotal :   -1.2253482711E+02 Ha)
 
--------------------------------------------------------------------------------
 Perturbation wavevector (in red.coord.)   0.000000  0.000000  0.000000
 Found    16 symmetries that leave the perturbation invariant.
 symkpt : the number of k-points, thanks to the symmetries,
 is reduced to    40 .
 
--------------------------------------------------------------------------------
 
-inwffil : will read wavefunctions from disk file o_DS2_WFK.nc
--------------------------------------------------------------------------------
 
 Initialisation of the first-order wave-functions :
  ireadwf=   0

--- !BeginCycle
iteration_state: {dtset: 3, }
solver: {iscf: 7, nstep: 100, nline: 4, wfoptalg: 0, }
tolerances: {tolvrs: 1.00E-13, }
...
 
     iter   2DEtotal(Ha)        deltaE(Ha) residm    vres2
-ETOT  1   51.992655196254     -9.313E+02 3.619E+02 3.626E+04
 ETOT  2   44.178116363391     -7.815E+00 6.441E-01 2.371E+04
 ETOT  3   20.736802829169     -2.344E+01 1.318E-01 3.055E+03
 ETOT  4   17.575476560346     -3.161E+00 4.149E-03 1.310E+01
 ETOT  5   17.568959539456     -6.517E-03 8.957E-05 1.145E+00
 ETOT  6   17.568544124328     -4.154E-04 5.755E-06 2.538E-02
 ETOT  7   17.568539545160     -4.579E-06 1.601E-08 1.785E-03
 ETOT  8   17.568538148011     -1.397E-06 3.508E-09 9.562E-06
 ETOT  9   17.568538139374     -8.638E-09 4.531E-11 5.456E-08
 ETOT 10   17.568538139309     -6.514E-11 2.559E-12 1.222E-08
 ETOT 11   17.568538139294     -1.455E-11 1.140E-13 2.615E-10
 ETOT 12   17.568538139293     -1.478E-12 5.088E-15 1.055E-11
 ETOT 13   17.568538139293      4.547E-13 3.874E-16 1.269E-13
 ETOT 14   17.568538139293      1.137E-13 1.835E-17 2.184E-16
 
 At SCF step   14       vres2   =  2.18E-16 < tolvrs=  1.00E-13 =>converged.
-open ddk wf file :o_DS2_1WF37.nc
-open ddk wf file :o_DS2_1WF38.nc
-open ddk wf file :o_DS2_1WF39.nc
================================================================================
 
 ----iterations are completed or convergence reached----
 
 Mean square residual over all n,k,spin=   10.153E-20; max=  18.352E-18
 
 Seventeen components of 2nd-order total energy (hartree) are
 1,2,3: 0th-order hamiltonian combined with 1st-order wavefunctions
     kin0=   1.00556795E+03 eigvalue=   3.91363294E+01  local=  -1.38598762E+02
 4,5,6,7: 1st-order hamiltonian combined with 1st and 0th-order wfs
 loc psp =  -1.89249686E+02  Hartree=   6.41538842E+01     xc=  -2.12155455E+01
     kin1=  -1.63483950E+03
 8,9,10: eventually, occupation + non-local contributions
    edocc=   0.00000000E+00     enl0=   1.93977496E+01   enl1=  -1.10055587E+02
 1-10 gives the relaxation energy (to be shifted if some occ is /=2.0)
   erelax=  -9.65703164E+02
 11,12,13 Non-relaxation  contributions : frozen-wavefunctions and Ewald
  fr.hart=  -2.14814507E+01   fr.kin=   8.46985574E+02 fr.loc=   1.75014983E+02
 14,15,16 Non-relaxation  contributions : frozen-wavefunctions and Ewald
  fr.nonl=   4.83049976E+01    fr.xc=  -4.93519852E+00  Ewald=  -7.55767129E+01
 17 Non-relaxation  contributions : pseudopotential core energy
  pspcore=   1.49595107E+01
 Resulting in :
 2DEtotal=    0.1756853814E+02 Ha. Also 2DEtotal=    0.478064235167E+03 eV
    (2DErelax=   -9.6570316420E+02 Ha. 2DEnonrelax=    9.8327170234E+02 Ha)
    (  non-var. 2DEtotal :    1.7568538137E+01 Ha)
 
 
--------------------------------------------------------------------------------
 Perturbation wavevector (in red.coord.)   0.000000  0.000000  0.000000
 Found    16 symmetries that leave the perturbation invariant.
 symkpt : the number of k-points, thanks to the symmetries,
 is reduced to    40 .
 
--------------------------------------------------------------------------------
 
-inwffil : will read wavefunctions from disk file o_DS2_WFK.nc
--------------------------------------------------------------------------------
 
 Initialisation of the first-order wave-functions :
  ireadwf=   0

--- !BeginCycle
iteration_state: {dtset: 3, }
solver: {iscf: 7, nstep: 100, nline: 4, wfoptalg: 0, }
tolerances: {tolvrs: 1.00E-13, }
...
 
     iter   2DEtotal(Ha)        deltaE(Ha) residm    vres2
-ETOT  1   51.990008378178     -9.313E+02 3.619E+02 3.626E+04
 ETOT  2   44.165615206659     -7.824E+00 6.439E-01 2.369E+04
 ETOT  3   20.738301622359     -2.343E+01 1.317E-01 3.056E+03
 ETOT  4   17.575471807297     -3.163E+00 4.152E-03 1.310E+01
 ETOT  5   17.568954414210     -6.517E-03 8.959E-05 1.146E+00
 ETOT  6   17.568538631907     -4.158E-04 5.759E-06 2.540E-02
 ETOT  7   17.568534072219     -4.560E-06 1.603E-08 1.785E-03
 ETOT  8   17.568532675589     -1.397E-06 3.501E-09 9.523E-06
 ETOT  9   17.568532666992     -8.597E-09 4.533E-11 5.543E-08
 ETOT 10   17.568532666927     -6.503E-11 2.553E-12 1.222E-08
 ETOT 11   17.568532666913     -1.455E-11 1.142E-13 2.683E-10
 ETOT 12   17.568532666912     -5.684E-13 5.105E-15 1.079E-11
 ETOT 13   17.568532666911     -1.137E-12 3.895E-16 1.326E-13
 ETOT 14   17.568532666911      1.137E-13 1.838E-17 2.359E-16
 
 At SCF step   14       vres2   =  2.36E-16 < tolvrs=  1.00E-13 =>converged.
-open ddk wf file :o_DS2_1WF37.nc
-open ddk wf file :o_DS2_1WF38.nc
-open ddk wf file :o_DS2_1WF39.nc
================================================================================
 
 ----iterations are completed or convergence reached----
 
 Mean square residual over all n,k,spin=   10.206E-20; max=  18.378E-18
 
 Seventeen components of 2nd-order total energy (hartree) are
 1,2,3: 0th-order hamiltonian combined with 1st-order wavefunctions
     kin0=   1.00556797E+03 eigvalue=   3.91363294E+01  local=  -1.38598762E+02
 4,5,6,7: 1st-order hamiltonian combined with 1st and 0th-order wfs
 loc psp =  -1.89249686E+02  Hartree=   6.41538842E+01     xc=  -2.12155455E+01
     kin1=  -1.63483952E+03
 8,9,10: eventually, occupation + non-local contributions
    edocc=   0.00000000E+00     enl0=   1.93977495E+01   enl1=  -1.10055587E+02
 1-10 gives the relaxation energy (to be shifted if some occ is /=2.0)
   erelax=  -9.65703176E+02
 11,12,13 Non-relaxation  contributions : frozen-wavefunctions and Ewald
  fr.hart=  -2.14814507E+01   fr.kin=   8.46985580E+02 fr.loc=   1.75014983E+02
 14,15,16 Non-relaxation  contributions : frozen-wavefunctions and Ewald
  fr.nonl=   4.83049976E+01    fr.xc=  -4.93519852E+00  Ewald=  -7.55767129E+01
 17 Non-relaxation  contributions : pseudopotential core energy
  pspcore=   1.49595107E+01
 Resulting in :
 2DEtotal=    0.1756853267E+02 Ha. Also 2DEtotal=    0.478064086256E+03 eV
    (2DErelax=   -9.6570317577E+02 Ha. 2DEnonrelax=    9.8327170843E+02 Ha)
    (  non-var. 2DEtotal :    1.7568532665E+01 Ha)
 
 
--------------------------------------------------------------------------------
 Perturbation wavevector (in red.coord.)   0.000000  0.000000  0.000000
 Found    16 symmetries that leave the perturbation invariant.
 symkpt : the number of k-points, thanks to the symmetries,
 is reduced to    40 .
 
--------------------------------------------------------------------------------
 
-inwffil : will read wavefunctions from disk file o_DS2_WFK.nc
--------------------------------------------------------------------------------
 
 Initialisation of the first-order wave-functions :
  ireadwf=   0

--- !BeginCycle
iteration_state: {dtset: 3, }
solver: {iscf: 7, nstep: 100, nline: 4, wfoptalg: 0, }
tolerances: {tolvrs: 1.00E-13, }
...
 
     iter   2DEtotal(Ha)        deltaE(Ha) residm    vres2
-ETOT  1   51.992635107247     -9.313E+02 3.619E+02 3.626E+04
 ETOT  2   44.178109683415     -7.815E+00 6.441E-01 2.371E+04
 ETOT  3   20.736790908907     -2.344E+01 1.318E-01 3.055E+03
 ETOT  4   17.575465189203     -3.161E+00 4.149E-03 1.310E+01
 ETOT  5   17.568948178230     -6.517E-03 8.957E-05 1.145E+00
 ETOT  6   17.568532763620     -4.154E-04 5.755E-06 2.538E-02
 ETOT  7   17.568528184429     -4.579E-06 1.601E-08 1.785E-03
 ETOT  8   17.568526787280     -1.397E-06 3.508E-09 9.562E-06
 ETOT  9   17.568526778642     -8.638E-09 4.531E-11 5.456E-08
 ETOT 10   17.568526778577     -6.514E-11 2.559E-12 1.222E-08
 ETOT 11   17.568526778562     -1.512E-11 1.140E-13 2.615E-10
 ETOT 12   17.568526778561     -1.137E-12 5.088E-15 1.055E-11
 ETOT 13   17.568526778562      9.095E-13 3.874E-16 1.269E-13
 ETOT 14   17.568526778563      1.592E-12 1.835E-17 2.185E-16
 
 At SCF step   14       vres2   =  2.19E-16 < tolvrs=  1.00E-13 =>converged.
-open ddk wf file :o_DS2_1WF37.nc
-open ddk wf file :o_DS2_1WF38.nc
-open ddk wf file :o_DS2_1WF39.nc
================================================================================
 
 ----iterations are completed or convergence reached----
 
 Mean square residual over all n,k,spin=   10.154E-20; max=  18.352E-18
 
 Seventeen components of 2nd-order total energy (hartree) are
 1,2,3: 0th-order hamiltonian combined with 1st-order wavefunctions
     kin0=   1.00556798E+03 eigvalue=   3.91363293E+01  local=  -1.38598762E+02
 4,5,6,7: 1st-order hamiltonian combined with 1st and 0th-order wfs
 loc psp =  -1.89249686E+02  Hartree=   6.41538842E+01     xc=  -2.12155455E+01
     kin1=  -1.63483955E+03
 8,9,10: eventually, occupation + non-local contributions
    edocc=   0.00000000E+00     enl0=   1.93977495E+01   enl1=  -1.10055587E+02
 1-10 gives the relaxation energy (to be shifted if some occ is /=2.0)
   erelax=  -9.65703188E+02
 11,12,13 Non-relaxation  contributions : frozen-wavefunctions and Ewald
  fr.hart=  -2.14814507E+01   fr.kin=   8.46985586E+02 fr.loc=   1.75014983E+02
 14,15,16 Non-relaxation  contributions : frozen-wavefunctions and Ewald
  fr.nonl=   4.83049976E+01    fr.xc=  -4.93519852E+00  Ewald=  -7.55767129E+01
 17 Non-relaxation  contributions : pseudopotential core energy
  pspcore=   1.49595107E+01
 Resulting in :
 2DEtotal=    0.1756852678E+02 Ha. Also 2DEtotal=    0.478063926026E+03 eV
    (2DErelax=   -9.6570318774E+02 Ha. 2DEnonrelax=    9.8327171452E+02 Ha)
    (  non-var. 2DEtotal :    1.7568526777E+01 Ha)
 
 
--------------------------------------------------------------------------------
 Perturbation wavevector (in red.coord.)   0.000000  0.000000  0.000000
 Found     8 symmetries that leave the perturbation invariant.
 symkpt : the number of k-points, thanks to the symmetries,
 is reduced to    52 .
 
--------------------------------------------------------------------------------
 
-inwffil : will read wavefunctions from disk file o_DS2_WFK.nc
--------------------------------------------------------------------------------
 
 Initialisation of the first-order wave-functions :
  ireadwf=   0

--- !BeginCycle
iteration_state: {dtset: 3, }
solver: {iscf: 7, nstep: 100, nline: 4, wfoptalg: 0, }
tolerances: {tolvrs: 1.00E-13, }
...
 
     iter   2DEtotal(Ha)        deltaE(Ha) residm    vres2
-ETOT  1   11.330937564650     -3.997E+02 3.664E+02 1.931E+04
 ETOT  2   1.3317729057246     -9.999E+00 1.858E-01 9.214E+01
 ETOT  3   1.2159357592784     -1.158E-01 4.133E-03 1.672E+01
 ETOT  4   1.2070750755371     -8.861E-03 4.338E-04 1.796E-01
 ETOT  5   1.2068388122812     -2.363E-04 9.771E-06 3.130E-03
 ETOT  6   1.2068352120952     -3.600E-06 3.125E-07 3.800E-05
 ETOT  7   1.2068350971346     -1.150E-07 1.144E-08 2.097E-06
 ETOT  8   1.2068350909171     -6.217E-09 1.284E-09 8.033E-08
 ETOT  9   1.2068350906329     -2.843E-10 5.843E-11 6.571E-09
 ETOT 10   1.2068350906179     -1.495E-11 6.706E-12 2.557E-09
 ETOT 11   1.2068350906159     -2.046E-12 3.009E-13 1.673E-11
 ETOT 12   1.2068350906162      2.842E-13 4.274E-14 4.868E-12
 ETOT 13   1.2068350906164      2.842E-13 1.660E-15 4.577E-13
 ETOT 14   1.2068350906160     -4.547E-13 2.574E-16 3.289E-14
 
 At SCF step   14       vres2   =  3.29E-14 < tolvrs=  1.00E-13 =>converged.
-open ddk wf file :o_DS2_1WF37.nc
-open ddk wf file :o_DS2_1WF38.nc
-open ddk wf file :o_DS2_1WF39.nc
================================================================================
 
 ----iterations are completed or convergence reached----
 
[...]
           getden3          0
           getwfk1          0
           getwfk2          1
           getwfk3          2
             iscf1          7
             iscf2         -2
             iscf3          7
           istwfk1       2    0    0    3    0    0    0    0    0    0
                         0    0    0    0    0    0    6    0    0    7
                         0    0    0    0    0    0    0    0    0    0
                         0    0    0    0    0    0    0    0    0    0
                         0    0    0    0    0    0    0    0    0    0
           istwfk2       1    0    0    1    0    0    0    0    0    0
                         0    0    0    0    0    0    1    0    0    1
                         0    0    0    0    0    0    0    0    0    0
                         0    0    0    0    0    0    0    0    0    0
                         0    0    0    0    0    0    0    0    0    0
           istwfk3       1    0    0    1    0    0    0    0    0    0
                         0    0    0    0    0    0    1    0    0    1
                         0    0    0    0    0    0    0    0    0    0
                         0    0    0    0    0    0    0    0    0    0
                         0    0    0    0    0    0    0    0    0    0
                       outvar_i_n : Printing only first  50 k-points.
              ixc          11
           jdtset        1    2    3
              kpt      0.00000000E+00  0.00000000E+00  0.00000000E+00
                       1.66666667E-01  0.00000000E+00  0.00000000E+00
                       3.33333333E-01  0.00000000E+00  0.00000000E+00
                       5.00000000E-01  0.00000000E+00  0.00000000E+00
                       0.00000000E+00  1.66666667E-01  0.00000000E+00
                       1.66666667E-01  1.66666667E-01  0.00000000E+00
                       3.33333333E-01  1.66666667E-01  0.00000000E+00
                       5.00000000E-01  1.66666667E-01  0.00000000E+00
                      -3.33333333E-01  1.66666667E-01  0.00000000E+00
                      -1.66666667E-01  1.66666667E-01  0.00000000E+00
                       0.00000000E+00  3.33333333E-01  0.00000000E+00
                       1.66666667E-01  3.33333333E-01  0.00000000E+00
                       3.33333333E-01  3.33333333E-01  0.00000000E+00
                       5.00000000E-01  3.33333333E-01  0.00000000E+00
                      -3.33333333E-01  3.33333333E-01  0.00000000E+00
                      -1.66666667E-01  3.33333333E-01  0.00000000E+00
                       0.00000000E+00  5.00000000E-01  0.00000000E+00
                       1.66666667E-01  5.00000000E-01  0.00000000E+00
                       3.33333333E-01  5.00000000E-01  0.00000000E+00
                       5.00000000E-01  5.00000000E-01  0.00000000E+00
                       0.00000000E+00  0.00000000E+00  1.66666667E-01
                       1.66666667E-01  0.00000000E+00  1.66666667E-01
                       3.33333333E-01  0.00000000E+00  1.66666667E-01
                       5.00000000E-01  0.00000000E+00  1.66666667E-01
                      -3.33333333E-01  0.00000000E+00  1.66666667E-01
                      -1.66666667E-01  0.00000000E+00  1.66666667E-01
                       0.00000000E+00  1.66666667E-01  1.66666667E-01
                       1.66666667E-01  1.66666667E-01  1.66666667E-01
                       3.33333333E-01  1.66666667E-01  1.66666667E-01
                       5.00000000E-01  1.66666667E-01  1.66666667E-01
                      -3.33333333E-01  1.66666667E-01  1.66666667E-01
                      -1.66666667E-01  1.66666667E-01  1.66666667E-01
                       0.00000000E+00  3.33333333E-01  1.66666667E-01
                       1.66666667E-01  3.33333333E-01  1.66666667E-01
                       3.33333333E-01  3.33333333E-01  1.66666667E-01
                       5.00000000E-01  3.33333333E-01  1.66666667E-01
                      -3.33333333E-01  3.33333333E-01  1.66666667E-01
                      -1.66666667E-01  3.33333333E-01  1.66666667E-01
                       0.00000000E+00  5.00000000E-01  1.66666667E-01
                       1.66666667E-01  5.00000000E-01  1.66666667E-01
                       3.33333333E-01  5.00000000E-01  1.66666667E-01
                       5.00000000E-01  5.00000000E-01  1.66666667E-01
                      -3.33333333E-01  5.00000000E-01  1.66666667E-01
                      -1.66666667E-01  5.00000000E-01  1.66666667E-01
                       0.00000000E+00 -3.33333333E-01  1.66666667E-01
                       1.66666667E-01 -3.33333333E-01  1.66666667E-01
                       3.33333333E-01 -3.33333333E-01  1.66666667E-01
                       5.00000000E-01 -3.33333333E-01  1.66666667E-01
                      -3.33333333E-01 -3.33333333E-01  1.66666667E-01
                      -1.66666667E-01 -3.33333333E-01  1.66666667E-01
                       outvar_i_n : Printing only first  50 k-points.
           kptopt           2
         kptrlatt        6    0    0      0    6    0      0    0    6
          kptrlen      5.75486009E+01
P           mkmem           4
P          mkqmem           4
P          mk1mem           4
            natom          12
            nband          48
           nbdbuf1          0
           nbdbuf2          2
           nbdbuf3          0
           ndtset           3
            ngfft          48      48      48
             nkpt         112
            nstep1        100
            nstep2         30
            nstep3        100
             nsym          48
           ntypat           2
              occ      2.000000  2.000000  2.000000  2.000000  2.000000  2.000000
                       2.000000  2.000000  2.000000  2.000000  2.000000  2.000000
                       2.000000  2.000000  2.000000  2.000000  2.000000  2.000000
                       2.000000  2.000000  2.000000  2.000000  2.000000  2.000000
                       2.000000  2.000000  2.000000  2.000000  2.000000  2.000000
                       2.000000  2.000000  2.000000  2.000000  2.000000  2.000000
                       2.000000  2.000000  2.000000  2.000000  2.000000  2.000000
                       2.000000  2.000000  2.000000  2.000000  2.000000  2.000000
        optdriver1          0
        optdriver2          0
        optdriver3          1
        pawecutdg      3.00000000E+01 Hartree
         pawxcdev           0
           prtden1          1
           prtden2          0
           prtden3          0
           prteig           0
            prtwf1          1
            prtwf2          1
            prtwf3          0
          rfatpol1          1       1
          rfatpol2          1       1
          rfatpol3          1      12
            rfdir1          0       0       0
            rfdir2          1       1       1
            rfdir3          1       1       1
           rfelfd1          0
           rfelfd2          0
           rfelfd3          3
           rfphon1          0
           rfphon2          0
           rfphon3          1
           rfstrs1          0
           rfstrs2          0
           rfstrs3          3
           strten1    -1.0559051108E-04 -1.0559051108E-04 -1.0559051108E-04
                       0.0000000000E+00  0.0000000000E+00  0.0000000000E+00
           strten3     0.0000000000E+00  0.0000000000E+00  0.0000000000E+00
                       0.0000000000E+00  0.0000000000E+00  0.0000000000E+00
        symmorphi           0
           symrel      1  0  0   0  1  0   0  0  1      -1  0  0   0 -1  0   0  0 -1
                      -1  0  0   0  1  0   0  0 -1       1  0  0   0 -1  0   0  0  1
                      -1  0  0   0 -1  0   0  0  1       1  0  0   0  1  0   0  0 -1
                       1  0  0   0 -1  0   0  0 -1      -1  0  0   0  1  0   0  0  1
                       0  1  0   1  0  0   0  0  1       0 -1  0  -1  0  0   0  0 -1
                       0 -1  0   1  0  0   0  0 -1       0  1  0  -1  0  0   0  0  1
                       0 -1  0  -1  0  0   0  0  1       0  1  0   1  0  0   0  0 -1
                       0  1  0  -1  0  0   0  0 -1       0 -1  0   1  0  0   0  0  1
                       0  0  1   1  0  0   0  1  0       0  0 -1  -1  0  0   0 -1  0
                       0  0 -1   1  0  0   0 -1  0       0  0  1  -1  0  0   0  1  0
                       0  0 -1  -1  0  0   0  1  0       0  0  1   1  0  0   0 -1  0
                       0  0  1  -1  0  0   0 -1  0       0  0 -1   1  0  0   0  1  0
                       1  0  0   0  0  1   0  1  0      -1  0  0   0  0 -1   0 -1  0
                      -1  0  0   0  0  1   0 -1  0       1  0  0   0  0 -1   0  1  0
                      -1  0  0   0  0 -1   0  1  0       1  0  0   0  0  1   0 -1  0
                       1  0  0   0  0 -1   0 -1  0      -1  0  0   0  0  1   0  1  0
                       0  1  0   0  0  1   1  0  0       0 -1  0   0  0 -1  -1  0  0
                       0 -1  0   0  0  1  -1  0  0       0  1  0   0  0 -1   1  0  0
                       0 -1  0   0  0 -1   1  0  0       0  1  0   0  0  1  -1  0  0
                       0  1  0   0  0 -1  -1  0  0       0 -1  0   0  0  1   1  0  0
                       0  0  1   0  1  0   1  0  0       0  0 -1   0 -1  0  -1  0  0
                       0  0 -1   0  1  0  -1  0  0       0  0  1   0 -1  0   1  0  0
                       0  0 -1   0 -1  0   1  0  0       0  0  1   0  1  0  -1  0  0
                       0  0  1   0 -1  0  -1  0  0       0  0 -1   0  1  0   1  0  0
           toldfe1     1.00000000E-13 Hartree
           toldfe2     0.00000000E+00 Hartree
           toldfe3     0.00000000E+00 Hartree
           tolvrs1     0.00000000E+00
           tolvrs2     0.00000000E+00
           tolvrs3     1.00000000E-13
           tolwfr1     0.00000000E+00
           tolwfr2     1.00000000E-22
           tolwfr3     0.00000000E+00
            typat      1  1  1  1  2  2  2  2  2  2  2  2
              wtk        0.00463    0.00926    0.00926    0.00463    0.00926    0.00926
                         0.00926    0.00926    0.00926    0.00926    0.00926    0.00926
                         0.00926    0.00926    0.00926    0.00926    0.00463    0.00926
                         0.00926    0.00463    0.00926    0.00926    0.00926    0.00926
                         0.00926    0.00926    0.00926    0.00926    0.00926    0.00926
                         0.00926    0.00926    0.00926    0.00926    0.00926    0.00926
                         0.00926    0.00926    0.00926    0.00926    0.00926    0.00926
                         0.00926    0.00926    0.00926    0.00926    0.00926    0.00926
                         0.00926    0.00926
                       outvars : Printing only first  50 k-points.
           xangst      0.0000000000E+00  0.0000000000E+00  0.0000000000E+00
                       0.0000000000E+00  2.5377840000E+00  2.5377840000E+00
                       2.5377840000E+00  0.0000000000E+00  2.5377840000E+00
                       2.5377840000E+00  2.5377840000E+00  0.0000000000E+00
                       1.2688920000E+00  1.2688920000E+00  3.8066760000E+00
                       1.2688920000E+00  3.8066760000E+00  3.8066760000E+00
                       1.2688920000E+00  3.8066760000E+00  1.2688920000E+00
                       1.2688920000E+00  1.2688920000E+00  1.2688920000E+00
                       3.8066760000E+00  1.2688920000E+00  1.2688920000E+00
                       3.8066760000E+00  3.8066760000E+00  1.2688920000E+00
                       3.8066760000E+00  3.8066760000E+00  3.8066760000E+00
                       3.8066760000E+00  1.2688920000E+00  3.8066760000E+00
            xcart      0.0000000000E+00  0.0000000000E+00  0.0000000000E+00
                       0.0000000000E+00  4.7957167444E+00  4.7957167444E+00
                       4.7957167444E+00  0.0000000000E+00  4.7957167444E+00
                       4.7957167444E+00  4.7957167444E+00  0.0000000000E+00
                       2.3978583722E+00  2.3978583722E+00  7.1935751166E+00
                       2.3978583722E+00  7.1935751166E+00  7.1935751166E+00
                       2.3978583722E+00  7.1935751166E+00  2.3978583722E+00
                       2.3978583722E+00  2.3978583722E+00  2.3978583722E+00
                       7.1935751166E+00  2.3978583722E+00  2.3978583722E+00
                       7.1935751166E+00  7.1935751166E+00  2.3978583722E+00
                       7.1935751166E+00  7.1935751166E+00  7.1935751166E+00
                       7.1935751166E+00  2.3978583722E+00  7.1935751166E+00
             xred      0.0000000000E+00  0.0000000000E+00  0.0000000000E+00
                       0.0000000000E+00  5.0000000000E-01  5.0000000000E-01
                       5.0000000000E-01  0.0000000000E+00  5.0000000000E-01
                       5.0000000000E-01  5.0000000000E-01  0.0000000000E+00
                       2.5000000000E-01  2.5000000000E-01  7.5000000000E-01
                       2.5000000000E-01  7.5000000000E-01  7.5000000000E-01
                       2.5000000000E-01  7.5000000000E-01  2.5000000000E-01
                       2.5000000000E-01  2.5000000000E-01  2.5000000000E-01
                       7.5000000000E-01  2.5000000000E-01  2.5000000000E-01
                       7.5000000000E-01  7.5000000000E-01  2.5000000000E-01
                       7.5000000000E-01  7.5000000000E-01  7.5000000000E-01
                       7.5000000000E-01  2.5000000000E-01  7.5000000000E-01
            znucl       72.00000    8.00000
 
================================================================================


- Timing analysis has been suppressed with timopt=0



================================================================================

 Suggested references for the acknowledgment of ABINIT usage.

 The users of ABINIT have little formal obligations with respect to the ABINIT group
 (those specified in the GNU General Public License, http://www.gnu.org/copyleft/gpl.txt).
 However, it is common practice in the scientific literature,
 to acknowledge the efforts of people that have made the research possible.
 In this spirit, please find below suggested citations of work written by ABINIT developers,
 corresponding to implementations inside of ABINIT that you have used in the present run.
 Note also that it will be of great value to readers of publications presenting these results,
 to read papers enabling them to understand the theoretical formalism and details
 of the ABINIT implementation.
 For information on why they are suggested, see also https://docs.abinit.org/theory/acknowledgments.
-
- [1] Specification of an extensible and portable file format for electronic structure and crystallographic data
- X. Gonze, C.-O. Almbladh, A. Cucca, D. Caliste, C. Freysoldt, M. Marques, V. Olevano, Y. Pouillon, M.J. Verstraete,
- Comput. Material Science 43, 1056 (2008).
- Comment: to be cited in case the ETSF_IO file format is used, i.e. iomode=3.
- DOI and bibtex: see https://docs.abinit.org/theory/bibliography/#gonze2008
-
- [2] Metric tensor formulation of strain in density-functional perturbation theory, 
- D. R. Hamann, X. Wu, K. M. Rabe, and D. Vanderbilt, Phys. Rev. B71, 035117 (2005).
- Comment: Non-vanishing rfstrs. Strong suggestion to cite this paper in your publications.
- DOI and bibtex: see https://docs.abinit.org/theory/bibliography/#hamann2005
-
- [3] The Abinit project: Impact, environment and recent developments.
- Computer Phys. Comm. 248, 107042 (2020).
- X.Gonze, B. Amadon, G. Antonius, F.Arnardi, L.Baguet, J.-M.Beuken,
- J.Bieder, F.Bottin, J.Bouchet, E.Bousquet, N.Brouwer, F.Bruneval,
- G.Brunin, T.Cavignac, J.-B. Charraud, Wei Chen, M.Cote, S.Cottenier,
- J.Denier, G.Geneste, Ph.Ghosez, M.Giantomassi, Y.Gillet, O.Gingras,
- D.R.Hamann, G.Hautier, Xu He, N.Helbig, N.Holzwarth, Y.Jia, F.Jollet,
- W.Lafargue-Dit-Hauret, K.Lejaeghere, M.A.L.Marques, A.Martin, C.Martins,
- H.P.C. Miranda, F.Naccarato, K. Persson, G.Petretto, V.Planes, Y.Pouillon,
- S.Prokhorenko, F.Ricci, G.-M.Rignanese, A.H.Romero, M.M.Schmitt, M.Torrent,
- M.J.van Setten, B.Van Troeye, M.J.Verstraete, G.Zerah and J.W.Zwanzig
- Comment: the fifth generic paper describing the ABINIT project.
- Note that a version of this paper, that is not formatted for Computer Phys. Comm. 
- is available at https://www.abinit.org/sites/default/files/ABINIT20.pdf .
- The licence allows the authors to put it on the Web.
- DOI and bibtex: see https://docs.abinit.org/theory/bibliography/#gonze2020
-
- [4] First-principles responses of solids to atomic displacements and homogeneous electric fields:,
- implementation of a conjugate-gradient algorithm. X. Gonze, Phys. Rev. B55, 10337 (1997).
- Comment: Non-vanishing rfphon and/or rfelfd, in the norm-conserving case.
- DOI and bibtex: see https://docs.abinit.org/theory/bibliography/#gonze1997
-
- [5] Dynamical matrices, Born effective charges, dielectric permittivity tensors, and ,
- interatomic force constants from density-functional perturbation theory,
- X. Gonze and C. Lee, Phys. Rev. B55, 10355 (1997).
- Comment: Non-vanishing rfphon and/or rfelfd, in the norm-conserving case.
- DOI and bibtex: see https://docs.abinit.org/theory/bibliography/#gonze1997a
-
- [6] Optimized norm-conserving Vanderbilt pseudopotentials.
- D.R. Hamann, Phys. Rev. B 88, 085117 (2013).
- Comment: Some pseudopotential generated using the ONCVPSP code were used.
- DOI and bibtex: see https://docs.abinit.org/theory/bibliography/#hamann2013
-
- [7] ABINIT: Overview, and focus on selected capabilities
- J. Chem. Phys. 152, 124102 (2020).
- A. Romero, D.C. Allan, B. Amadon, G. Antonius, T. Applencourt, L.Baguet,
- J.Bieder, F.Bottin, J.Bouchet, E.Bousquet, F.Bruneval,
- G.Brunin, D.Caliste, M.Cote,
- J.Denier, C. Dreyer, Ph.Ghosez, M.Giantomassi, Y.Gillet, O.Gingras,
- D.R.Hamann, G.Hautier, F.Jollet, G. Jomard,
- A.Martin, 
- H.P.C. Miranda, F.Naccarato, G.Petretto, N.A. Pike, V.Planes,
- S.Prokhorenko, T. Rangel, F.Ricci, G.-M.Rignanese, M.Royo, M.Stengel, M.Torrent,
- M.J.van Setten, B.Van Troeye, M.J.Verstraete, J.Wiktor, J.W.Zwanziger, and X.Gonze.
- Comment: a global overview of ABINIT, with focus on selected capabilities .
- Note that a version of this paper, that is not formatted for J. Chem. Phys 
- is available at https://www.abinit.org/sites/default/files/ABINIT20_JPC.pdf .
- The licence allows the authors to put it on the Web.
- DOI and bibtex: see https://docs.abinit.org/theory/bibliography/#romero2020
-
- [8] Recent developments in the ABINIT software package.
- Computer Phys. Comm. 205, 106 (2016).
- X.Gonze, F.Jollet, F.Abreu Araujo, D.Adams, B.Amadon, T.Applencourt,
- C.Audouze, J.-M.Beuken, J.Bieder, A.Bokhanchuk, E.Bousquet, F.Bruneval
- D.Caliste, M.Cote, F.Dahm, F.Da Pieve, M.Delaveau, M.Di Gennaro,
- B.Dorado, C.Espejo, G.Geneste, L.Genovese, A.Gerossier, M.Giantomassi,
- Y.Gillet, D.R.Hamann, L.He, G.Jomard, J.Laflamme Janssen, S.Le Roux,
- A.Levitt, A.Lherbier, F.Liu, I.Lukacevic, A.Martin, C.Martins,
- M.J.T.Oliveira, S.Ponce, Y.Pouillon, T.Rangel, G.-M.Rignanese,
- A.H.Romero, B.Rousseau, O.Rubel, A.A.Shukri, M.Stankovski, M.Torrent,
- M.J.Van Setten, B.Van Troeye, M.J.Verstraete, D.Waroquier, J.Wiktor,
- B.Xu, A.Zhou, J.W.Zwanziger.
- Comment: the fourth generic paper describing the ABINIT project.
- Note that a version of this paper, that is not formatted for Computer Phys. Comm. 
- is available at https://www.abinit.org/sites/default/files/ABINIT16.pdf .
- The licence allows the authors to put it on the Web.
- DOI and bibtex: see https://docs.abinit.org/theory/bibliography/#gonze2016
-
- Proc.   0 individual time (sec): cpu=        877.0  wall=        932.3
 
================================================================================
 
 Calculation completed.
.Delivered   0 WARNINGs and  15 COMMENTs to log file.
+Overall time at end (sec) : cpu=      32171.0  wall=      33557.7
