
.Version 9.4.2 of ABINIT 
.(MPI version, prepared for a x86_64_linux_intel2021.2 computer) 

.Copyright (C) 1998-2021 ABINIT group . 
 ABINIT comes with ABSOLUTELY NO WARRANTY.
 It is free software, and you are welcome to redistribute it
 under certain conditions (GNU General Public License,
 see ~abinit/COPYING or http://www.gnu.org/copyleft/gpl.txt).

 ABINIT is a project of the Universite Catholique de Louvain,
 Corning Inc. and other collaborators, see ~abinit/doc/developers/contributors.txt .
 Please read https://docs.abinit.org/theory/acknowledgments for suggested
 acknowledgments of the ABINIT effort.
 For more information, see https://www.abinit.org .

.Starting date : Sun 30 May 2021.
- ( at 22h14 )
  
- input  file    -> /workspace/jiahaoz/HZO/LG_Model/GroundP/HfZrO4/WaveVector/process/LGD_another/X/primitiveX
- output file    -> /workspace/jiahaoz/HZO/LG_Model/GroundP/HfZrO4/WaveVector/process/LGD_another/X/primitiveX.abo
- root for input  files -> i
- root for output files -> o
 
 
 DATASET    1 : space group P4/m m m (#123); Bravais tP (primitive tetrag.)
================================================================================
 Values of the parameters that define the memory need for DATASET  1.
     intxc =       0    ionmov =       0      iscf =       7    lmnmax =       8
     lnmax =       8     mgfft =      45  mpssoang =       4    mqgrid =    3001
     natom =       6  nloc_mem =       1    nspden =       1   nspinor =       1
    nsppol =       1      nsym =      16    n1xccc =    2501    ntypat =       3
    occopt =       1   xclevel =       2
-    mband =          24        mffmem =           1         mkmem =           8
       mpw =        2638          nfft =       46080          nkpt =         144
================================================================================
P This job should need less than                      24.951 Mbytes of memory.
  Rough estimation (10% accuracy) of disk space for files :
_ WF disk file :    139.115 Mbytes ; DEN or POT disk file :      0.354 Mbytes.
================================================================================
 
 
 DATASET    2 : space group P4/m m m (#123); Bravais tP (primitive tetrag.)
================================================================================
 Values of the parameters that define the memory need for DATASET  2 (RF).
     intxc =       0      iscf =       7    lmnmax =       8     lnmax =       8
     mgfft =      45  mpssoang =       4    mqgrid =    3001     natom =       6
  nloc_mem =       1    nspden =       1   nspinor =       1    nsppol =       1
      nsym =      16    n1xccc =    2501    ntypat =       3    occopt =       1
   xclevel =       2
-    mband =          24        mffmem =           1         mkmem =           8
-   mkqmem =           8        mk1mem =           8           mpw =        2638
      nfft =       46080          nkpt =         144
================================================================================
P This job should need less than                      41.246 Mbytes of memory.
  Rough estimation (10% accuracy) of disk space for files :
_ WF disk file :    139.115 Mbytes ; DEN or POT disk file :      0.354 Mbytes.
================================================================================
 
--------------------------------------------------------------------------------
------------- Echo of variables that govern the present computation ------------
--------------------------------------------------------------------------------
-
- outvars: echo of selected default values                                      
-   iomode0 =  3 , fftalg0 =512 , wfoptalg0 =  0
-
- outvars: echo of global parameters not present in the input file              
-  max_nthreads =    0
-
 -outvars: echo values of preprocessed input variables --------
            acell      6.7784476387E+00  6.7784476387E+00  9.5867885420E+00 Bohr
              amu      1.78490000E+02  9.12240000E+01  1.59994000E+01
             ecut      2.50000000E+01 Hartree
           ecutsm      5.00000000E-01 Hartree
-          fftalg         512
           getwfk1          0
           getwfk2          1
              ixc          11
           jdtset        1    2
              kpt      8.33333333E-02  8.33333333E-02  1.25000000E-01
                       2.50000000E-01  8.33333333E-02  1.25000000E-01
                       4.16666667E-01  8.33333333E-02  1.25000000E-01
                      -4.16666667E-01  8.33333333E-02  1.25000000E-01
                      -2.50000000E-01  8.33333333E-02  1.25000000E-01
                      -8.33333333E-02  8.33333333E-02  1.25000000E-01
                       8.33333333E-02  2.50000000E-01  1.25000000E-01
                       2.50000000E-01  2.50000000E-01  1.25000000E-01
                       4.16666667E-01  2.50000000E-01  1.25000000E-01
                      -4.16666667E-01  2.50000000E-01  1.25000000E-01
                      -2.50000000E-01  2.50000000E-01  1.25000000E-01
                      -8.33333333E-02  2.50000000E-01  1.25000000E-01
                       8.33333333E-02  4.16666667E-01  1.25000000E-01
                       2.50000000E-01  4.16666667E-01  1.25000000E-01
                       4.16666667E-01  4.16666667E-01  1.25000000E-01
                      -4.16666667E-01  4.16666667E-01  1.25000000E-01
                      -2.50000000E-01  4.16666667E-01  1.25000000E-01
                      -8.33333333E-02  4.16666667E-01  1.25000000E-01
                       8.33333333E-02 -4.16666667E-01  1.25000000E-01
                       2.50000000E-01 -4.16666667E-01  1.25000000E-01
                       4.16666667E-01 -4.16666667E-01  1.25000000E-01
                      -4.16666667E-01 -4.16666667E-01  1.25000000E-01
                      -2.50000000E-01 -4.16666667E-01  1.25000000E-01
                      -8.33333333E-02 -4.16666667E-01  1.25000000E-01
                       8.33333333E-02 -2.50000000E-01  1.25000000E-01
                       2.50000000E-01 -2.50000000E-01  1.25000000E-01
                       4.16666667E-01 -2.50000000E-01  1.25000000E-01
                      -4.16666667E-01 -2.50000000E-01  1.25000000E-01
                      -2.50000000E-01 -2.50000000E-01  1.25000000E-01
                      -8.33333333E-02 -2.50000000E-01  1.25000000E-01
                       8.33333333E-02 -8.33333333E-02  1.25000000E-01
                       2.50000000E-01 -8.33333333E-02  1.25000000E-01
                       4.16666667E-01 -8.33333333E-02  1.25000000E-01
                      -4.16666667E-01 -8.33333333E-02  1.25000000E-01
                      -2.50000000E-01 -8.33333333E-02  1.25000000E-01
                      -8.33333333E-02 -8.33333333E-02  1.25000000E-01
                       8.33333333E-02  8.33333333E-02  3.75000000E-01
                       2.50000000E-01  8.33333333E-02  3.75000000E-01
                       4.16666667E-01  8.33333333E-02  3.75000000E-01
                      -4.16666667E-01  8.33333333E-02  3.75000000E-01
                      -2.50000000E-01  8.33333333E-02  3.75000000E-01
                      -8.33333333E-02  8.33333333E-02  3.75000000E-01
                       8.33333333E-02  2.50000000E-01  3.75000000E-01
                       2.50000000E-01  2.50000000E-01  3.75000000E-01
                       4.16666667E-01  2.50000000E-01  3.75000000E-01
                      -4.16666667E-01  2.50000000E-01  3.75000000E-01
                      -2.50000000E-01  2.50000000E-01  3.75000000E-01
                      -8.33333333E-02  2.50000000E-01  3.75000000E-01
                       8.33333333E-02  4.16666667E-01  3.75000000E-01
                       2.50000000E-01  4.16666667E-01  3.75000000E-01
                       outvar_i_n : Printing only first  50 k-points.
           kptopt           3
         kptrlatt        6    0    0      0    6    0      0    0    4
          kptrlen      3.83471542E+01
P           mkmem           8
P          mkqmem           8
P          mk1mem           8
            natom           6
            nband          24
           ndtset           2
            ngfft          32      32      45
             nkpt         144
             nqpt1          0
             nqpt2          1
            nstep         100
             nsym          16
           ntypat           3
              occ      2.000000  2.000000  2.000000  2.000000  2.000000  2.000000
                       2.000000  2.000000  2.000000  2.000000  2.000000  2.000000
                       2.000000  2.000000  2.000000  2.000000  2.000000  2.000000
                       2.000000  2.000000  2.000000  2.000000  2.000000  2.000000
        optdriver1          0
        optdriver2          1
        pawecutdg      3.00000000E+01 Hartree
         pawxcdev           0
              qpt1     0.00000000E+00  0.00000000E+00  0.00000000E+00
              qpt2     5.00000000E-01  0.00000000E+00  0.00000000E+00
          rfatpol1          1       1
          rfatpol2          1       6
            rfdir1          0       0       0
            rfdir2          1       1       1
           rfphon1          0
           rfphon2          1
            rprim      7.0710670000E-01  7.0710670000E-01  0.0000000000E+00
                      -7.0710670000E-01  7.0710670000E-01  0.0000000000E+00
                       0.0000000000E+00  0.0000000000E+00  1.0000000000E+00
           shiftk      5.00000000E-01  5.00000000E-01  5.00000000E-01
          spgroup         123
        symmorphi           0
           symrel      1  0  0   0  1  0   0  0  1      -1  0  0   0 -1  0   0  0 -1
                      -1  0  0   0  1  0   0  0 -1       1  0  0   0 -1  0   0  0  1
                      -1  0  0   0 -1  0   0  0  1       1  0  0   0  1  0   0  0 -1
                       1  0  0   0 -1  0   0  0 -1      -1  0  0   0  1  0   0  0  1
                       0  1  0   1  0  0   0  0  1       0 -1  0  -1  0  0   0  0 -1
                       0 -1  0   1  0  0   0  0 -1       0  1  0  -1  0  0   0  0  1
                       0 -1  0  -1  0  0   0  0  1       0  1  0   1  0  0   0  0 -1
                       0  1  0  -1  0  0   0  0 -1       0 -1  0   1  0  0   0  0  1
           toldfe1     1.00000000E-13 Hartree
           toldfe2     0.00000000E+00 Hartree
           tolvrs1     0.00000000E+00
           tolvrs2     1.00000000E-13
            typat      1  2  3  3  3  3
              wtk        0.00694    0.00694    0.00694    0.00694    0.00694    0.00694
                         0.00694    0.00694    0.00694    0.00694    0.00694    0.00694
                         0.00694    0.00694    0.00694    0.00694    0.00694    0.00694
                         0.00694    0.00694    0.00694    0.00694    0.00694    0.00694
                         0.00694    0.00694    0.00694    0.00694    0.00694    0.00694
                         0.00694    0.00694    0.00694    0.00694    0.00694    0.00694
                         0.00694    0.00694    0.00694    0.00694    0.00694    0.00694
                         0.00694    0.00694    0.00694    0.00694    0.00694    0.00694
                         0.00694    0.00694
                       outvars : Printing only first  50 k-points.
           xangst      0.0000000000E+00  0.0000000000E+00  0.0000000000E+00
                       0.0000000000E+00  2.5363917329E+00  2.5365550000E+00
                       1.2681958664E+00  1.2681958664E+00  1.2682775000E+00
                       1.2681958664E+00  1.2681958664E+00  3.8048325000E+00
                      -1.2681958664E+00  1.2681958664E+00  1.2682775000E+00
                      -1.2681958664E+00  1.2681958664E+00  3.8048325000E+00
            xcart      0.0000000000E+00  0.0000000000E+00  0.0000000000E+00
                       0.0000000000E+00  4.7930857409E+00  4.7933942710E+00
                       2.3965428704E+00  2.3965428704E+00  2.3966971355E+00
                       2.3965428704E+00  2.3965428704E+00  7.1900914065E+00
                      -2.3965428704E+00  2.3965428704E+00  2.3966971355E+00
                      -2.3965428704E+00  2.3965428704E+00  7.1900914065E+00
             xred      0.0000000000E+00  0.0000000000E+00  0.0000000000E+00
                       5.0000000000E-01  5.0000000000E-01  5.0000000000E-01
                       5.0000000000E-01  0.0000000000E+00  2.5000000000E-01
                       5.0000000000E-01  0.0000000000E+00  7.5000000000E-01
                       0.0000000000E+00  5.0000000000E-01  2.5000000000E-01
                       0.0000000000E+00  5.0000000000E-01  7.5000000000E-01
            znucl       72.00000   40.00000    8.00000
 
================================================================================
 
 chkinp: Checking input parameters for consistency, jdtset=   1.
 
 chkinp: Checking input parameters for consistency, jdtset=   2.
 
================================================================================
== DATASET  1 ==================================================================
-   mpi_nproc: 18, omp_nthreads: -1 (-1 if OMP is not activated)
 

--- !DatasetInfo
iteration_state: {dtset: 1, }
dimensions: {natom: 6, nkpt: 144, mband: 24, nsppol: 1, nspinor: 1, nspden: 1, mpw: 2638, }
cutoff_energies: {ecut:  25.0, pawecutdg:  30.0, }
electrons: {nelect:   4.80000000E+01, charge:   0.00000000E+00, occopt:   1.00000000E+00, tsmear:   1.00000000E-02, }
meta: {optdriver: 0, ionmov: 0, optcell: 0, iscf: 7, paral_kgb: 0, }
...

 Exchange-correlation functional for the present dataset will be:
  GGA: Perdew-Burke-Ernzerhof functional - ixc=11
 Citation for XC functional:
  J.P.Perdew, K.Burke, M.Ernzerhof, PRL 77, 3865 (1996)
 
 Real(R)+Recip(G) space primitive vectors, cartesian coordinates (Bohr,Bohr^-1):
 R(1)=  4.7930857  4.7930857  0.0000000  G(1)=  0.1043169  0.1043169  0.0000000
 R(2)= -4.7930857  4.7930857  0.0000000  G(2)= -0.1043169  0.1043169  0.0000000
 R(3)=  0.0000000  0.0000000  9.5867885  G(3)=  0.0000000  0.0000000  0.1043102
 Unit cell volume ucvol=  4.4048745E+02 bohr^3
 Angles (23,13,12)=  9.00000000E+01  9.00000000E+01  9.00000000E+01 degrees
 
 getcut: wavevector=  0.0000  0.0000  0.0000  ngfft=  32  32  45
         ecut(hartree)=     25.000   => boxcut(ratio)=   2.03913
 
--- Pseudopotential description ------------------------------------------------
- pspini: atom type   1  psp file is /workspace/jiahaoz/PACKAGE_INSTALL/abinit-9.4.1/pbe_s_sr/Hf.psp8
- pspatm: opening atomic psp file    /workspace/jiahaoz/PACKAGE_INSTALL/abinit-9.4.1/pbe_s_sr/Hf.psp8
- Hf    ONCVPSP  r_core=  1.72  1.72  1.72  2.43
- 72.00000  12.00000    160625                znucl, zion, pspdat
    8   11    3    4       600   0.00000      pspcod,pspxc,lmax,lloc,mmax,r2well
    5.99000000000000    5.40000000000000    0.00000000000000   rchrg,fchrg,qchrg
     nproj     2     2     2     2
     extension_switch     1
  pspatm : epsatm=   21.98649506
         --- l  ekb(1:nproj) -->
             0    5.812335   -0.521211
             1   -3.038329    2.466565
             2    2.060039    0.471534
             3    9.947446    0.353012
 pspatm: atomic psp has been read  and splines computed
 
- pspini: atom type   2  psp file is /workspace/jiahaoz/PACKAGE_INSTALL/abinit-9.4.1/pbe_s_sr/Zr.psp8
- pspatm: opening atomic psp file    /workspace/jiahaoz/PACKAGE_INSTALL/abinit-9.4.1/pbe_s_sr/Zr.psp8
- Zr    ONCVPSP  r_core=  1.57  1.57  1.51
- 40.00000  12.00000    150708                znucl, zion, pspdat
    8   11    2    4       600   0.00000      pspcod,pspxc,lmax,lloc,mmax,r2well
    5.99000000000000    5.00000000000000    0.00000000000000   rchrg,fchrg,qchrg
     nproj     2     2     2
     extension_switch     1
  pspatm : epsatm=   18.79952966
         --- l  ekb(1:nproj) -->
             0   10.640382    0.896979
             1    5.578784    0.693718
             2    3.567950    0.580498
 pspatm: atomic psp has been read  and splines computed
 
- pspini: atom type   3  psp file is /workspace/jiahaoz/PACKAGE_INSTALL/abinit-9.4.1/pbe_s_sr/O.psp8
- pspatm: opening atomic psp file    /workspace/jiahaoz/PACKAGE_INSTALL/abinit-9.4.1/pbe_s_sr/O.psp8
- O     ONCVPSP  r_core=  1.36  1.46  1.26
-  8.00000   6.00000    151103                znucl, zion, pspdat
    8   11    2    4       600   0.00000      pspcod,pspxc,lmax,lloc,mmax,r2well
    5.99000000000000    4.00000000000000    0.00000000000000   rchrg,fchrg,qchrg
     nproj     2     2     1
     extension_switch     1
  pspatm : epsatm=    6.19401560
         --- l  ekb(1:nproj) -->
             0    5.257212    0.704241
             1   -5.135443   -1.451781
             2   -4.371486
 pspatm: atomic psp has been read  and splines computed
 
   3.14698018E+03                                ecore*ucvol(ha*bohr**3)
--------------------------------------------------------------------------------
 
_setup2: Arith. and geom. avg. npw (full set) are    2629.944    2629.939
 
================================================================================

--- !BeginCycle
iteration_state: {dtset: 1, }
solver: {iscf: 7, nstep: 100, nline: 4, wfoptalg: 0, }
tolerances: {toldfe: 1.00E-13, }
...
 
     iter   Etot(hartree)      deltaE(h)  residm     vres2
 ETOT  1  -172.93305759281    -1.729E+02 3.253E-01 6.425E+02
 ETOT  2  -173.06237533728    -1.293E-01 1.720E-02 6.471E+02
 ETOT  3  -173.49176081223    -4.294E-01 9.330E-02 3.674E+01
 ETOT  4  -173.51192984181    -2.017E-02 1.956E-03 1.636E+00
 ETOT  5  -173.51247982296    -5.500E-04 1.048E-04 4.220E-01
 ETOT  6  -173.51268184214    -2.020E-04 4.548E-06 1.895E-02
 ETOT  7  -173.51268571685    -3.875E-06 5.489E-07 3.581E-04
 ETOT  8  -173.51268591062    -1.938E-07 2.969E-08 3.597E-05
 ETOT  9  -173.51268591947    -8.850E-09 4.888E-09 8.216E-07
 ETOT 10  -173.51268591980    -3.289E-10 2.077E-10 8.503E-08
 ETOT 11  -173.51268591987    -6.966E-11 6.660E-11 3.161E-09
 ETOT 12  -173.51268591987    -4.320E-12 2.798E-12 5.003E-11
 ETOT 13  -173.51268591987     2.245E-12 8.795E-13 2.876E-11
 ETOT 14  -173.51268591987    -5.969E-13 3.705E-14 3.232E-13
 ETOT 15  -173.51268591987    -6.253E-13 1.162E-14 7.729E-14
 ETOT 16  -173.51268591987     7.674E-13 4.841E-16 1.736E-16
 ETOT 17  -173.51268591987    -1.393E-12 1.521E-16 1.471E-16
 ETOT 18  -173.51268591987     9.379E-13 6.322E-18 1.150E-17
 ETOT 19  -173.51268591987     1.990E-13 1.991E-18 1.340E-18
 ETOT 20  -173.51268591987    -1.990E-13 8.275E-20 2.100E-19
 ETOT 21  -173.51268591987     5.116E-13 2.610E-20 1.072E-21
 ETOT 22  -173.51268591987    -2.842E-14 1.086E-21 2.340E-22
 ETOT 23  -173.51268591987     2.558E-13 3.431E-22 1.379E-23
 ETOT 24  -173.51268591987    -8.527E-14 1.428E-23 7.859E-24
 ETOT 25  -173.51268591987     8.527E-14 4.520E-24 5.730E-24
 
 At SCF step   25, etot is converged : 
  for the second time, diff in etot=  8.527E-14 < toldfe=  1.000E-13
 
 Cartesian components of stress tensor (hartree/bohr^3)
  sigma(1 1)= -1.92128822E-04  sigma(3 2)=  0.00000000E+00
  sigma(2 2)= -1.92128822E-04  sigma(3 1)=  0.00000000E+00
  sigma(3 3)= -1.47500805E-04  sigma(2 1)=  0.00000000E+00
 

--- !ResultsGS
iteration_state: {dtset: 1, }
comment   : Summary of ground state results
lattice_vectors:
- [  4.7930857,   4.7930857,   0.0000000, ]
- [ -4.7930857,   4.7930857,   0.0000000, ]
- [  0.0000000,   0.0000000,   9.5867885, ]
lattice_lengths: [   6.77845,    6.77845,    9.58679, ]
lattice_angles: [ 90.000,  90.000,  90.000, ] # degrees, (23, 13, 12)
lattice_volume:   4.4048745E+02
convergence: {deltae:  8.527E-14, res2:  5.730E-24, residm:  4.520E-24, diffor: null, }
etotal    :  -1.73512686E+02
entropy   :   0.00000000E+00
fermie    :   3.02999645E-01
cartesian_stress_tensor: # hartree/bohr^3
- [ -1.92128822E-04,   0.00000000E+00,   0.00000000E+00, ]
- [  0.00000000E+00,  -1.92128822E-04,   0.00000000E+00, ]
- [  0.00000000E+00,   0.00000000E+00,  -1.47500805E-04, ]
pressure_GPa:   5.2150E+00
xred      :
- [  0.0000E+00,   0.0000E+00,   0.0000E+00, Hf]
- [  5.0000E-01,   5.0000E-01,   5.0000E-01, Zr]
- [  5.0000E-01,   0.0000E+00,   2.5000E-01,  O]
- [  5.0000E-01,   0.0000E+00,   7.5000E-01,  O]
- [  0.0000E+00,   5.0000E-01,   2.5000E-01,  O]
- [  0.0000E+00,   5.0000E-01,   7.5000E-01,  O]
cartesian_forces: # hartree/bohr
- [  0.00000000E+00,   0.00000000E+00,   1.44560290E-19, ]
- [  0.00000000E+00,   0.00000000E+00,   1.44560290E-19, ]
- [  0.00000000E+00,   0.00000000E+00,  -3.54397477E-03, ]
- [  0.00000000E+00,   0.00000000E+00,   3.54397477E-03, ]
- [  0.00000000E+00,   0.00000000E+00,  -3.54397477E-03, ]
- [  0.00000000E+00,   0.00000000E+00,   3.54397477E-03, ]
force_length_stats: {min:   1.44560290E-19, max:   3.54397477E-03, mean:   2.36264985E-03, }
...

 Integrated electronic density in atomic spheres:
 ------------------------------------------------
 Atom  Sphere_radius  Integrated_density
    1        2.00000          8.25767886
    2        2.00000          8.24058152
    3        2.00000          6.35329051
    4        2.00000          6.35329051
    5        2.00000          6.35329051
    6        2.00000          6.35329051
================================================================================
 
 ----iterations are completed or convergence reached----
 
 Mean square residual over all n,k,spin=   31.762E-28; max=  45.199E-25
 reduced coordinates (array xred) for    6 atoms
       0.000000000000      0.000000000000      0.000000000000
       0.500000000000      0.500000000000      0.500000000000
       0.500000000000      0.000000000000      0.250000000000
       0.500000000000      0.000000000000      0.750000000000
       0.000000000000      0.500000000000      0.250000000000
       0.000000000000      0.500000000000      0.750000000000
 rms dE/dt=  1.6016E-02; max dE/dt=  3.3975E-02; dE/dt below (all hartree)
    1       0.000000000000      0.000000000000      0.000000000000
    2       0.000000000000      0.000000000000      0.000000000000
    3       0.000000000000      0.000000000000      0.033975336705
    4       0.000000000000      0.000000000000     -0.033975336705
    5       0.000000000000      0.000000000000      0.033975336705
    6       0.000000000000      0.000000000000     -0.033975336705
 
 cartesian coordinates (angstrom) at end:
    1      0.00000000000000     0.00000000000000     0.00000000000000
    2      0.00000000000000     2.53639173290000     2.53655500000000
    3      1.26819586645000     1.26819586645000     1.26827750000000
    4      1.26819586645000     1.26819586645000     3.80483250000000
    5     -1.26819586645000     1.26819586645000     1.26827750000000
    6     -1.26819586645000     1.26819586645000     3.80483250000000
 
 cartesian forces (hartree/bohr) at end:
    1      0.00000000000000     0.00000000000000     0.00000000000000
    2      0.00000000000000     0.00000000000000     0.00000000000000
    3      0.00000000000000     0.00000000000000    -0.00354397476859
    4      0.00000000000000     0.00000000000000     0.00354397476859
    5      0.00000000000000     0.00000000000000    -0.00354397476859
    6      0.00000000000000     0.00000000000000     0.00354397476859
 frms,max,avg= 1.6706457E-03 3.5439748E-03   0.000E+00  0.000E+00  0.000E+00 h/b
 
 cartesian forces (eV/Angstrom) at end:
    1      0.00000000000000     0.00000000000000     0.00000000000000
    2      0.00000000000000     0.00000000000000     0.00000000000000
    3      0.00000000000000     0.00000000000000    -0.18223849450230
    4      0.00000000000000     0.00000000000000     0.18223849450230
    5      0.00000000000000     0.00000000000000    -0.18223849450230
    6      0.00000000000000     0.00000000000000     0.18223849450230
 frms,max,avg= 8.5908050E-02 1.8223849E-01   0.000E+00  0.000E+00  0.000E+00 e/A
 length scales=  6.778447638661  6.778447638661  9.586788542003 bohr
              =  3.587000000000  3.587000000000  5.073110000000 angstroms
 prteigrs : about to open file o_DS1_EIG
 Fermi (or HOMO) energy (hartree) =   0.30300   Average Vxc (hartree)=  -0.44446
 Eigenvalues (hartree) for nkpt= 144  k points:
 kpt#   1, nband= 24, wtk=  0.00694, kpt=  0.0833  0.0833  0.1250 (reduced coord)
  -1.93834   -1.46014   -0.78912   -0.78306   -0.78305   -0.65947   -0.65061   -0.65048
  -0.36802   -0.31622   -0.30072   -0.27839    0.08939    0.11472    0.11609    0.12556
   0.17042    0.18218    0.24840    0.25576    0.26287    0.27356    0.28636    0.29357
 prteigrs : prtvol=0 or 1, do not print more k-points.
 

--- !EnergyTerms
iteration_state     : {dtset: 1, }
comment             : Components of total free energy in Hartree
kinetic             :  7.28463577478723E+01
hartree             :  2.71301356912443E+01
xc                  : -4.11785472849370E+01
Ewald energy        : -1.35582870701412E+02
psp_core            :  7.14431292070866E+00
local_psp           : -1.01963531563173E+02
non_local_psp       : -1.90854273017194E+00
total_energy        : -1.73512685919869E+02
total_energy_eV     : -4.72152030114516E+03
band_energy         : -1.31359007459183E+01
...

 
 Cartesian components of stress tensor (hartree/bohr^3)
  sigma(1 1)= -1.92128822E-04  sigma(3 2)=  0.00000000E+00
  sigma(2 2)= -1.92128822E-04  sigma(3 1)=  0.00000000E+00
  sigma(3 3)= -1.47500805E-04  sigma(2 1)=  0.00000000E+00
 
-Cartesian components of stress tensor (GPa)         [Pressure=  5.2150E+00 GPa]
- sigma(1 1)= -5.65262415E+00  sigma(3 2)=  0.00000000E+00
- sigma(2 2)= -5.65262415E+00  sigma(3 1)=  0.00000000E+00
- sigma(3 3)= -4.33962277E+00  sigma(2 1)=  0.00000000E+00
 
================================================================================
== DATASET  2 ==================================================================
-   mpi_nproc: 18, omp_nthreads: -1 (-1 if OMP is not activated)
 

--- !DatasetInfo
iteration_state: {dtset: 2, }
dimensions: {natom: 6, nkpt: 144, mband: 24, nsppol: 1, nspinor: 1, nspden: 1, mpw: 2638, }
cutoff_energies: {ecut:  25.0, pawecutdg:  30.0, }
electrons: {nelect:   4.80000000E+01, charge:   0.00000000E+00, occopt:   1.00000000E+00, tsmear:   1.00000000E-02, }
meta: {optdriver: 1, rfphon: 1, }
...

 mkfilename : getwfk/=0, take file _WFK from output of DATASET   1.
 
 Exchange-correlation functional for the present dataset will be:
  GGA: Perdew-Burke-Ernzerhof functional - ixc=11
 Citation for XC functional:
  J.P.Perdew, K.Burke, M.Ernzerhof, PRL 77, 3865 (1996)
 
 Real(R)+Recip(G) space primitive vectors, cartesian coordinates (Bohr,Bohr^-1):
 R(1)=  4.7930857  4.7930857  0.0000000  G(1)=  0.1043169  0.1043169  0.0000000
 R(2)= -4.7930857  4.7930857  0.0000000  G(2)= -0.1043169  0.1043169  0.0000000
 R(3)=  0.0000000  0.0000000  9.5867885  G(3)=  0.0000000  0.0000000  0.1043102
 Unit cell volume ucvol=  4.4048745E+02 bohr^3
 Angles (23,13,12)=  9.00000000E+01  9.00000000E+01  9.00000000E+01 degrees
 setup1 : take into account q-point for computing boxcut.
 
 getcut: wavevector=  0.5000  0.0000  0.0000  ngfft=  32  32  45
         ecut(hartree)=     25.000   => boxcut(ratio)=   2.03187
--------------------------------------------------------------------------------
 
-inwffil : will read wavefunctions from disk file o_DS1_WFK.nc
 
 ==>  initialize data related to q vector <== 
 
 The list of irreducible perturbations for this q vector is:
    1)    idir= 1    ipert=   1
    2)    idir= 2    ipert=   1
    3)    idir= 3    ipert=   1
    4)    idir= 1    ipert=   2
    5)    idir= 2    ipert=   2
    6)    idir= 3    ipert=   2
    7)    idir= 1    ipert=   3
    8)    idir= 2    ipert=   3
    9)    idir= 3    ipert=   3
   10)    idir= 1    ipert=   5
   11)    idir= 2    ipert=   5
   12)    idir= 3    ipert=   5
 
================================================================================
 
 The perturbation idir=   1  ipert=   4 is
 symmetric of a previously calculated perturbation.
 So, its SCF calculation is not needed.
 
 
 The perturbation idir=   2  ipert=   4 is
 symmetric of a previously calculated perturbation.
 So, its SCF calculation is not needed.
 
 
 The perturbation idir=   3  ipert=   4 is
 symmetric of a previously calculated perturbation.
 So, its SCF calculation is not needed.
 
 
 The perturbation idir=   1  ipert=   6 is
 symmetric of a previously calculated perturbation.
 So, its SCF calculation is not needed.
 
 
 The perturbation idir=   2  ipert=   6 is
 symmetric of a previously calculated perturbation.
 So, its SCF calculation is not needed.
 
 
 The perturbation idir=   3  ipert=   6 is
 symmetric of a previously calculated perturbation.
 So, its SCF calculation is not needed.
 
 
--------------------------------------------------------------------------------
 Perturbation wavevector (in red.coord.)   0.500000  0.000000  0.000000
 Perturbation : displacement of atom   1   along direction   1
 Found     4 symmetries that leave the perturbation invariant.
 symkpt : the number of k-points, thanks to the symmetries,
 is reduced to    36 .
 
--------------------------------------------------------------------------------
 
-inwffil : will read wavefunctions from disk file o_DS1_WFK.nc
--------------------------------------------------------------------------------
 
-inwffil : will read wavefunctions from disk file o_DS1_WFK.nc
 Initialisation of the first-order wave-functions :
  ireadwf=   0

--- !BeginCycle
iteration_state: {dtset: 2, }
solver: {iscf: 7, nstep: 100, nline: 4, wfoptalg: 0, }
tolerances: {tolvrs: 1.00E-13, }
...
 
     iter   2DEtotal(Ha)        deltaE(Ha) residm    vres2
-ETOT  1   20.968733249425     -1.856E+03 6.551E+00 5.126E+04
 ETOT  2   14.100359647157     -6.868E+00 2.820E-02 2.770E+03
 ETOT  3   14.805775824546      7.054E-01 6.405E-03 4.050E+03
 ETOT  4   13.335781434185     -1.470E+00 1.976E-03 1.647E+02
 ETOT  5   13.307418692797     -2.836E-02 4.532E-04 1.294E+00
 ETOT  6   13.307010716922     -4.080E-04 3.495E-06 3.146E-01
 ETOT  7   13.306787948960     -2.228E-04 3.228E-07 8.116E-03
 ETOT  8   13.306785824240     -2.125E-06 2.266E-08 2.834E-04
 ETOT  9   13.306785687088     -1.372E-07 1.110E-09 9.652E-06
 ETOT 10   13.306785678864     -8.225E-09 1.101E-10 1.098E-06
 ETOT 11   13.306785678313     -5.507E-10 1.375E-11 1.365E-08
 ETOT 12   13.306785678296     -1.660E-11 1.298E-12 3.478E-09
 ETOT 13   13.306785678310      1.342E-11 1.334E-13 2.441E-10
 ETOT 14   13.306785678303     -7.276E-12 1.342E-14 7.581E-12
 ETOT 15   13.306785678297     -5.457E-12 1.399E-15 5.502E-13
 ETOT 16   13.306785678292     -5.230E-12 1.305E-16 1.979E-13
 ETOT 17   13.306785678293      9.095E-13 1.391E-17 1.592E-14
 
 At SCF step   17       vres2   =  1.59E-14 < tolvrs=  1.00E-13 =>converged.
================================================================================
 
 ----iterations are completed or convergence reached----
 
 Mean square residual over all n,k,spin=   20.883E-20; max=  13.911E-18
 
 Thirteen components of 2nd-order total energy (hartree) are
 1,2,3: 0th-order hamiltonian combined with 1st-order wavefunctions
     kin0=   1.76213346E+03 eigvalue=   3.63249490E+02  local=  -1.30423866E+03
 4,5,6: 1st-order hamiltonian combined with 1st and 0th-order wfs
 loc psp =  -2.75271749E+03  Hartree=   7.60836819E+02     xc=  -1.20921937E+02
 note that "loc psp" includes a xc core correction that could be resolved
 7,8,9: eventually, occupation + non-local contributions
    edocc=   0.00000000E+00     enl0=   4.02236262E+02   enl1=  -9.73873379E+02
 1-9 gives the relaxation energy (to be shifted if some occ is /=2.0)
   erelax=  -1.86329543E+03
 10,11,12 Non-relaxation  contributions : frozen-wavefunctions and Ewald
 fr.local=   9.32124129E+02 fr.nonlo=   4.91412961E+02  Ewald=   3.99895117E+02
 13,14 Frozen wf xc core corrections (1) and (2)
 frxc 1  =  -2.04545721E+02  frxc 2 =   2.57715733E+02
 Resulting in :
 2DEtotal=    0.1330678568E+02 Ha. Also 2DEtotal=    0.362096053035E+03 eV
    (2DErelax=   -1.8632954340E+03 Ha. 2DEnonrelax=    1.8766022197E+03 Ha)
    (  non-var. 2DEtotal :    1.3306785659E+01 Ha)
 
 
--------------------------------------------------------------------------------
 Perturbation wavevector (in red.coord.)   0.500000  0.000000  0.000000
 Perturbation : displacement of atom   1   along direction   2
 Found     2 symmetries that leave the perturbation invariant.
 symkpt : the number of k-points, thanks to the symmetries,
 is reduced to    72 .
 
--------------------------------------------------------------------------------
 
-inwffil : will read wavefunctions from disk file o_DS1_WFK.nc
--------------------------------------------------------------------------------
 
-inwffil : will read wavefunctions from disk file o_DS1_WFK.nc
 Initialisation of the first-order wave-functions :
  ireadwf=   0

--- !BeginCycle
iteration_state: {dtset: 2, }
solver: {iscf: 7, nstep: 100, nline: 4, wfoptalg: 0, }
tolerances: {tolvrs: 1.00E-13, }
...
 
     iter   2DEtotal(Ha)        deltaE(Ha) residm    vres2
-ETOT  1   3.3939293684887     -1.617E+03 6.492E+00 2.134E+02
 ETOT  2   2.0997691269899     -1.294E+00 1.271E-02 2.314E+01
 ETOT  3   2.0834468692697     -1.632E-02 2.929E-04 1.133E+00
 ETOT  4   2.0824017150339     -1.045E-03 2.398E-05 3.492E-02
 ETOT  5   2.0823624102229     -3.930E-05 1.285E-06 6.949E-04
 ETOT  6   2.0823607739642     -1.636E-06 7.427E-08 1.266E-05
 ETOT  7   2.0823606808840     -9.308E-08 1.095E-08 1.950E-06
 ETOT  8   2.0823606735462     -7.338E-09 4.294E-10 2.319E-08
 ETOT  9   2.0823606731187     -4.275E-10 8.596E-11 1.831E-09
 ETOT 10   2.0823606731010     -1.774E-11 4.441E-12 8.486E-11
 ETOT 11   2.0823606730969     -4.093E-12 6.859E-13 6.847E-13
 ETOT 12   2.0823606730871     -9.777E-12 4.876E-14 3.385E-13
 ETOT 13   2.0823606730828     -4.320E-12 7.252E-15 7.116E-15
 
 At SCF step   13       vres2   =  7.12E-15 < tolvrs=  1.00E-13 =>converged.
================================================================================
 
 ----iterations are completed or convergence reached----
 
 Mean square residual over all n,k,spin=   52.411E-18; max=  72.522E-16
 
 Thirteen components of 2nd-order total energy (hartree) are
 1,2,3: 0th-order hamiltonian combined with 1st-order wavefunctions
     kin0=   1.70275335E+03 eigvalue=   3.52871672E+02  local=  -1.26042038E+03
 4,5,6: 1st-order hamiltonian combined with 1st and 0th-order wfs
 loc psp =  -2.26458354E+03  Hartree=   5.46245160E+02     xc=  -1.17194752E+02
 note that "loc psp" includes a xc core correction that could be resolved
 7,8,9: eventually, occupation + non-local contributions
    edocc=   0.00000000E+00     enl0=   3.94004696E+02   enl1=  -9.71935949E+02
 1-9 gives the relaxation energy (to be shifted if some occ is /=2.0)
   erelax=  -1.61825974E+03
 10,11,12 Non-relaxation  contributions : frozen-wavefunctions and Ewald
 fr.local=   9.32124129E+02 fr.nonlo=   4.91412961E+02  Ewald=   1.43634960E+02
 13,14 Frozen wf xc core corrections (1) and (2)
 frxc 1  =  -2.04545679E+02  frxc 2 =   2.57715733E+02
 Resulting in :
 2DEtotal=    0.2082360673E+01 Ha. Also 2DEtotal=    0.566639156102E+02 eV
    (2DErelax=   -1.6182597444E+03 Ha. 2DEnonrelax=    1.6203421051E+03 Ha)
    (  non-var. 2DEtotal :    2.0823606458E+00 Ha)
 
 
--------------------------------------------------------------------------------
 Perturbation wavevector (in red.coord.)   0.500000  0.000000  0.000000
 Perturbation : displacement of atom   1   along direction   3
 Found     2 symmetries that leave the perturbation invariant.
 symkpt : the number of k-points, thanks to the symmetries,
 is reduced to    72 .
 
--------------------------------------------------------------------------------
 
-inwffil : will read wavefunctions from disk file o_DS1_WFK.nc
--------------------------------------------------------------------------------
 
-inwffil : will read wavefunctions from disk file o_DS1_WFK.nc
 Initialisation of the first-order wave-functions :
  ireadwf=   0

--- !BeginCycle
iteration_state: {dtset: 2, }
solver: {iscf: 7, nstep: 100, nline: 4, wfoptalg: 0, }
tolerances: {tolvrs: 1.00E-13, }
...
 
     iter   2DEtotal(Ha)        deltaE(Ha) residm    vres2
-ETOT  1   14.195059915208     -3.363E+03 1.315E+01 1.682E+03
 ETOT  2   11.187077765188     -3.008E+00 4.860E-02 3.059E+02
 ETOT  3   11.138854618124     -4.822E-02 2.452E-03 2.411E+02
 ETOT  4   10.923607275657     -2.152E-01 3.781E-04 3.712E+00
 ETOT  5   10.920371142568     -3.236E-03 2.257E-05 7.267E-01
 ETOT  6   10.920099594983     -2.715E-04 2.114E-06 4.826E-02
 ETOT  7   10.920071464788     -2.813E-05 7.719E-08 1.032E-04
 ETOT  8   10.920071254629     -2.102E-07 1.318E-08 1.094E-05
 ETOT  9   10.920071248084     -6.545E-09 4.433E-10 3.264E-06
 ETOT 10   10.920071245191     -2.893E-09 5.956E-11 2.109E-09
 ETOT 11   10.920071245179     -1.182E-11 5.621E-12 2.393E-10
 ETOT 12   10.920071245151     -2.865E-11 4.871E-13 4.741E-10
 ETOT 13   10.920071245146     -5.002E-12 3.886E-14 2.592E-11
 ETOT 14   10.920071245158      1.273E-11 4.941E-15 2.676E-13
 ETOT 15   10.920071245164      5.912E-12 3.763E-16 1.455E-13
 ETOT 16   10.920071245141     -2.365E-11 3.905E-17 4.900E-14
 
 At SCF step   16       vres2   =  4.90E-14 < tolvrs=  1.00E-13 =>converged.
================================================================================
 
 ----iterations are completed or convergence reached----
 
 Mean square residual over all n,k,spin=   40.961E-20; max=  39.048E-18
 
 Thirteen components of 2nd-order total energy (hartree) are
 1,2,3: 0th-order hamiltonian combined with 1st-order wavefunctions
     kin0=   3.44427275E+03 eigvalue=   7.11784615E+02  local=  -2.54949427E+03
 4,5,6: 1st-order hamiltonian combined with 1st and 0th-order wfs
 loc psp =  -4.78753550E+03  Hartree=   1.20275366E+03     xc=  -2.37092406E+02
 note that "loc psp" includes a xc core correction that could be resolved
 7,8,9: eventually, occupation + non-local contributions
    edocc=   0.00000000E+00     enl0=   7.94111089E+02   enl1=  -1.94513538E+03
 1-9 gives the relaxation energy (to be shifted if some occ is /=2.0)
   erelax=  -3.36633544E+03
 10,11,12 Non-relaxation  contributions : frozen-wavefunctions and Ewald
 fr.local=   1.86492680E+03 fr.nonlo=   9.82890362E+02  Ewald=   4.23036887E+02
 13,14 Frozen wf xc core corrections (1) and (2)
 frxc 1  =  -4.09150711E+02  frxc 2 =   5.15552173E+02
 Resulting in :
 2DEtotal=    0.1092007125E+02 Ha. Also 2DEtotal=    0.297150250430E+03 eV
    (2DErelax=   -3.3663354434E+03 Ha. 2DEnonrelax=    3.3772555147E+03 Ha)
    (  non-var. 2DEtotal :    1.0920071178E+01 Ha)
 
 
--------------------------------------------------------------------------------
 Perturbation wavevector (in red.coord.)   0.500000  0.000000  0.000000
 Perturbation : displacement of atom   2   along direction   1
 Found     4 symmetries that leave the perturbation invariant.
 symkpt : the number of k-points, thanks to the symmetries,
 is reduced to    36 .
 
--------------------------------------------------------------------------------
 
-inwffil : will read wavefunctions from disk file o_DS1_WFK.nc
--------------------------------------------------------------------------------
 
-inwffil : will read wavefunctions from disk file o_DS1_WFK.nc
 Initialisation of the first-order wave-functions :
  ireadwf=   0

--- !BeginCycle
iteration_state: {dtset: 2, }
solver: {iscf: 7, nstep: 100, nline: 4, wfoptalg: 0, }
tolerances: {tolvrs: 1.00E-13, }
...
 
     iter   2DEtotal(Ha)        deltaE(Ha) residm    vres2
-ETOT  1   22.521188503941     -2.156E+03 9.455E+00 4.800E+04
 ETOT  2   14.685547554406     -7.836E+00 2.345E-02 2.034E+03
 ETOT  3   14.991629762543      3.061E-01 3.082E-03 3.327E+03
 ETOT  4   14.110775201388     -8.809E-01 1.841E-03 1.608E+02
 ETOT  5   14.064437505171     -4.634E-02 5.379E-05 1.696E+01
 ETOT  6   14.061485909390     -2.952E-03 8.633E-06 2.788E-01
 ETOT  7   14.061373022448     -1.129E-04 3.607E-07 1.171E-02
 ETOT  8   14.061368236938     -4.786E-06 5.567E-08 1.113E-03
 ETOT  9   14.061367657411     -5.795E-07 2.276E-09 8.920E-06
 ETOT 10   14.061367647952     -9.459E-09 2.411E-10 3.420E-07
 ETOT 11   14.061367647544     -4.079E-10 2.247E-11 9.801E-08
 ETOT 12   14.061367647467     -7.685E-11 2.501E-12 1.631E-08
 ETOT 13   14.061367647470      3.183E-12 3.051E-13 2.338E-09
 ETOT 14   14.061367647459     -1.137E-11 2.491E-14 3.014E-10
 ETOT 15   14.061367647455     -4.547E-12 2.758E-15 7.404E-12
 ETOT 16   14.061367647455      9.095E-13 2.437E-16 2.773E-12
 ETOT 17   14.061367647456      4.547E-13 3.232E-17 1.222E-13
 ETOT 18   14.061367647444     -1.228E-11 2.298E-18 1.103E-14
 
 At SCF step   18       vres2   =  1.10E-14 < tolvrs=  1.00E-13 =>converged.
================================================================================
 
 ----iterations are completed or convergence reached----
 
 Mean square residual over all n,k,spin=   43.017E-21; max=  22.980E-19
 
 Thirteen components of 2nd-order total energy (hartree) are
 1,2,3: 0th-order hamiltonian combined with 1st-order wavefunctions
     kin0=   2.02671512E+03 eigvalue=   3.16536598E+02  local=  -1.68061721E+03
 4,5,6: 1st-order hamiltonian combined with 1st and 0th-order wfs
 loc psp =  -2.48937834E+03  Hartree=   7.28577593E+02     xc=  -1.41567254E+02
 note that "loc psp" includes a xc core correction that could be resolved
 7,8,9: eventually, occupation + non-local contributions
    edocc=   0.00000000E+00     enl0=   9.14400024E+02   enl1=  -1.83871140E+03
 1-9 gives the relaxation energy (to be shifted if some occ is /=2.0)
   erelax=  -2.16404487E+03
 10,11,12 Non-relaxation  contributions : frozen-wavefunctions and Ewald
 fr.local=   8.73186950E+02 fr.nonlo=   9.24675094E+02  Ewald=   3.99895117E+02
 13,14 Frozen wf xc core corrections (1) and (2)
 frxc 1  =  -1.65198700E+02  frxc 2 =   1.45547774E+02
 Resulting in :
 2DEtotal=    0.1406136765E+02 Ha. Also 2DEtotal=    0.382629272651E+03 eV
    (2DErelax=   -2.1640448681E+03 Ha. 2DEnonrelax=    2.1781062358E+03 Ha)
    (  non-var. 2DEtotal :    1.4061366309E+01 Ha)
 
 
--------------------------------------------------------------------------------
 Perturbation wavevector (in red.coord.)   0.500000  0.000000  0.000000
 Perturbation : displacement of atom   2   along direction   2
 Found     2 symmetries that leave the perturbation invariant.
 symkpt : the number of k-points, thanks to the symmetries,
 is reduced to    72 .
 
--------------------------------------------------------------------------------
 
-inwffil : will read wavefunctions from disk file o_DS1_WFK.nc
--------------------------------------------------------------------------------
 
-inwffil : will read wavefunctions from disk file o_DS1_WFK.nc
 Initialisation of the first-order wave-functions :
  ireadwf=   0

--- !BeginCycle
iteration_state: {dtset: 2, }
solver: {iscf: 7, nstep: 100, nline: 4, wfoptalg: 0, }
tolerances: {tolvrs: 1.00E-13, }
...
 
     iter   2DEtotal(Ha)        deltaE(Ha) residm    vres2
-ETOT  1   4.9204955014020     -1.917E+03 9.132E+00 3.205E+02
 ETOT  2   2.3418913665209     -2.579E+00 3.055E-02 1.664E+02
 ETOT  3   2.1870322156867     -1.549E-01 6.506E-04 5.176E+00
 ETOT  4   2.1848917667551     -2.140E-03 6.503E-05 9.880E-02
 ETOT  5   2.1848110222340     -8.074E-05 2.873E-06 2.445E-03
 ETOT  6   2.1848077784846     -3.244E-06 3.564E-07 2.526E-05
 ETOT  7   2.1848076082094     -1.703E-07 1.919E-08 3.059E-06
 ETOT  8   2.1848075955502     -1.266E-08 2.300E-09 1.038E-07
 ETOT  9   2.1848075946984     -8.517E-10 1.291E-10 1.810E-09
 ETOT 10   2.1848075946400     -5.844E-11 1.677E-11 4.239E-11
 ETOT 11   2.1848075946207     -1.933E-11 9.051E-13 7.082E-12
 ETOT 12   2.1848075946418      2.115E-11 1.267E-13 3.714E-13
 ETOT 13   2.1848075946334     -8.413E-12 6.597E-15 1.892E-14
 
 At SCF step   13       vres2   =  1.89E-14 < tolvrs=  1.00E-13 =>converged.
================================================================================
 
 ----iterations are completed or convergence reached----
 
 Mean square residual over all n,k,spin=   68.386E-18; max=  65.968E-16
 
 Thirteen components of 2nd-order total energy (hartree) are
 1,2,3: 0th-order hamiltonian combined with 1st-order wavefunctions
     kin0=   1.97224692E+03 eigvalue=   3.06722941E+02  local=  -1.63927248E+03
 4,5,6: 1st-order hamiltonian combined with 1st and 0th-order wfs
 loc psp =  -1.99256244E+03  Hartree=   5.14059735E+02     xc=  -1.37191562E+02
 note that "loc psp" includes a xc core correction that could be resolved
 7,8,9: eventually, occupation + non-local contributions
    edocc=   0.00000000E+00     enl0=   9.03097761E+02   enl1=  -1.84676419E+03
 1-9 gives the relaxation energy (to be shifted if some occ is /=2.0)
   erelax=  -1.91966332E+03
 10,11,12 Non-relaxation  contributions : frozen-wavefunctions and Ewald
 fr.local=   8.73186950E+02 fr.nonlo=   9.24675094E+02  Ewald=   1.43634960E+02
 13,14 Frozen wf xc core corrections (1) and (2)
 frxc 1  =  -1.65196652E+02  frxc 2 =   1.45547774E+02
 Resulting in :
 2DEtotal=    0.2184807595E+01 Ha. Also 2DEtotal=    0.594516381178E+02 eV
    (2DErelax=   -1.9196633184E+03 Ha. 2DEnonrelax=    1.9218481260E+03 Ha)
    (  non-var. 2DEtotal :    2.1848077318E+00 Ha)
 
 
--------------------------------------------------------------------------------
 Perturbation wavevector (in red.coord.)   0.500000  0.000000  0.000000
 Perturbation : displacement of atom   2   along direction   3
 Found     2 symmetries that leave the perturbation invariant.
 symkpt : the number of k-points, thanks to the symmetries,
 is reduced to    72 .
 
--------------------------------------------------------------------------------
 
-inwffil : will read wavefunctions from disk file o_DS1_WFK.nc
--------------------------------------------------------------------------------
 
-inwffil : will read wavefunctions from disk file o_DS1_WFK.nc
 Initialisation of the first-order wave-functions :
  ireadwf=   0

--- !BeginCycle
iteration_state: {dtset: 2, }
solver: {iscf: 7, nstep: 100, nline: 4, wfoptalg: 0, }
tolerances: {tolvrs: 1.00E-13, }
...
 
     iter   2DEtotal(Ha)        deltaE(Ha) residm    vres2
-ETOT  1   17.228959425119     -3.963E+03 1.838E+01 1.798E+03
 ETOT  2   12.090893850861     -5.138E+00 4.868E-02 5.167E+02
 ETOT  3   11.714865188951     -3.760E-01 5.121E-03 4.175E+01
 ETOT  4   11.722949837281      8.085E-03 4.212E-04 5.064E+01
 ETOT  5   11.678351135272     -4.460E-02 1.060E-04 2.416E-01
 ETOT  6   11.678121940522     -2.292E-04 1.584E-05 6.640E-03
 ETOT  7   11.678119946614     -1.994E-06 2.102E-07 7.362E-03
 ETOT  8   11.678114171849     -5.775E-06 2.537E-08 1.594E-05
 ETOT  9   11.678114137479     -3.437E-08 2.242E-09 1.150E-05
 ETOT 10   11.678114131755     -5.724E-09 2.071E-10 5.039E-07
 ETOT 11   11.678114131319     -4.356E-10 1.867E-11 6.532E-08
 ETOT 12   11.678114131253     -6.594E-11 3.518E-12 3.214E-08
 ETOT 13   11.678114131260      6.821E-12 9.640E-14 7.688E-10
 ETOT 14   11.678114131233     -2.683E-11 1.204E-14 1.167E-10
 ETOT 15   11.678114131239      5.457E-12 8.677E-16 1.954E-13
 ETOT 16   11.678114131237     -1.364E-12 8.517E-17 2.979E-14
 
 At SCF step   16       vres2   =  2.98E-14 < tolvrs=  1.00E-13 =>converged.
================================================================================
 
 ----iterations are completed or convergence reached----
 
 Mean square residual over all n,k,spin=   11.426E-19; max=  85.169E-18
 
 Thirteen components of 2nd-order total energy (hartree) are
 1,2,3: 0th-order hamiltonian combined with 1st-order wavefunctions
     kin0=   3.98528889E+03 eigvalue=   6.17494613E+02  local=  -3.30930089E+03
 4,5,6: 1st-order hamiltonian combined with 1st and 0th-order wfs
 loc psp =  -4.24640799E+03  Hartree=   1.13745113E+03     xc=  -2.77272051E+02
 note that "loc psp" includes a xc core correction that could be resolved
 7,8,9: eventually, occupation + non-local contributions
    edocc=   0.00000000E+00     enl0=   1.81446978E+03   enl1=  -3.68985499E+03
 1-9 gives the relaxation energy (to be shifted if some occ is /=2.0)
   erelax=  -3.96813150E+03
 10,11,12 Non-relaxation  contributions : frozen-wavefunctions and Ewald
 fr.local=   1.74589355E+03 fr.nonlo=   1.84998105E+03  Ewald=   4.23036887E+02
 13,14 Frozen wf xc core corrections (1) and (2)
 frxc 1  =  -3.30477289E+02  frxc 2 =   2.91375422E+02
 Resulting in :
 2DEtotal=    0.1167811413E+02 Ha. Also 2DEtotal=    0.317777646386E+03 eV
    (2DErelax=   -3.9681315040E+03 Ha. 2DEnonrelax=    3.9798096181E+03 Ha)
    (  non-var. 2DEtotal :    1.1678127231E+01 Ha)
 
 
--------------------------------------------------------------------------------
 Perturbation wavevector (in red.coord.)   0.500000  0.000000  0.000000
 Perturbation : displacement of atom   3   along direction   1
 Found     2 symmetries that leave the perturbation invariant.
 symkpt : the number of k-points, thanks to the symmetries,
 is reduced to    72 .
 
--------------------------------------------------------------------------------
 
-inwffil : will read wavefunctions from disk file o_DS1_WFK.nc
--------------------------------------------------------------------------------
 
-inwffil : will read wavefunctions from disk file o_DS1_WFK.nc
 Initialisation of the first-order wave-functions :
  ireadwf=   0

--- !BeginCycle
iteration_state: {dtset: 2, }
solver: {iscf: 7, nstep: 100, nline: 4, wfoptalg: 0, }
tolerances: {tolvrs: 1.00E-13, }
...
 
     iter   2DEtotal(Ha)        deltaE(Ha) residm    vres2
-ETOT  1   11.623766608228     -2.564E+03 1.083E+00 2.017E+04
 ETOT  2   7.4228408985796     -4.201E+00 1.117E-01 1.024E+04
 ETOT  3   6.1262103387244     -1.297E+00 2.188E-03 4.431E+02
 ETOT  4   6.1536191932646      2.741E-02 5.963E-04 4.275E+02
 ETOT  5   5.9947936708672     -1.588E-01 2.357E-04 2.337E+01
 ETOT  6   5.9907656818614     -4.028E-03 3.162E-05 8.252E-01
 ETOT  7   5.9908382194153      7.254E-05 1.620E-06 4.147E-01
 ETOT  8   5.9905676597009     -2.706E-04 4.174E-07 8.975E-02
 ETOT  9   5.9905407488054     -2.691E-05 6.529E-08 1.398E-03
 ETOT 10   5.9905402923205     -4.565E-07 3.398E-09 2.282E-04
 ETOT 11   5.9905401397591     -1.526E-07 2.277E-10 7.751E-06
 ETOT 12   5.9905401372471     -2.512E-09 4.730E-11 1.068E-06
 ETOT 13   5.9905401369656     -2.815E-10 2.026E-12 1.545E-07
 ETOT 14   5.9905401368633     -1.023E-10 2.785E-13 5.996E-09
 ETOT 15   5.9905401368496     -1.364E-11 3.904E-14 2.991E-09
 ETOT 16   5.9905401368610      1.137E-11 3.364E-15 3.902E-11
 ETOT 17   5.9905401368533     -7.731E-12 5.994E-16 3.744E-11
 ETOT 18   5.9905401368515     -1.819E-12 6.586E-17 1.155E-11
 ETOT 19   5.9905401368537      2.274E-12 9.653E-18 4.621E-13
 ETOT 20   5.9905401368560      2.274E-12 1.124E-18 9.263E-14
 
 At SCF step   20       vres2   =  9.26E-14 < tolvrs=  1.00E-13 =>converged.
================================================================================
 
 ----iterations are completed or convergence reached----
 
 Mean square residual over all n,k,spin=   12.009E-20; max=  11.242E-19
 
 Thirteen components of 2nd-order total energy (hartree) are
 1,2,3: 0th-order hamiltonian combined with 1st-order wavefunctions
     kin0=   2.94665164E+03 eigvalue=  -1.11038199E+02  local=  -9.92119986E+02
 4,5,6: 1st-order hamiltonian combined with 1st and 0th-order wfs
 loc psp =  -1.72134740E+03  Hartree=   5.23155681E+02     xc=  -1.15600059E+02
 note that "loc psp" includes a xc core correction that could be resolved
 7,8,9: eventually, occupation + non-local contributions
    edocc=   0.00000000E+00     enl0=   3.19000796E+02   enl1=  -3.41875234E+03
 1-9 gives the relaxation energy (to be shifted if some occ is /=2.0)
   erelax=  -2.57004986E+03
 10,11,12 Non-relaxation  contributions : frozen-wavefunctions and Ewald
 fr.local=   7.19306145E+02 fr.nonlo=   1.71901464E+03  Ewald=   1.62895324E+02
 13,14 Frozen wf xc core corrections (1) and (2)
 frxc 1  =  -1.07079345E+02  frxc 2 =   8.19036383E+01
 Resulting in :
 2DEtotal=    0.5990540137E+01 Ha. Also 2DEtotal=    0.163010887193E+03 eV
    (2DErelax=   -2.5700498610E+03 Ha. 2DEnonrelax=    2.5760404011E+03 Ha)
    (  non-var. 2DEtotal :    5.9905321442E+00 Ha)
 
 
--------------------------------------------------------------------------------
 Perturbation wavevector (in red.coord.)   0.500000  0.000000  0.000000
 Perturbation : displacement of atom   3   along direction   2
 The set of symmetries contains only one element for this perturbation.
 symkpt : not enough symmetry to change the number of k points.
 
--------------------------------------------------------------------------------
 
-inwffil : will read wavefunctions from disk file o_DS1_WFK.nc
--------------------------------------------------------------------------------
 
-inwffil : will read wavefunctions from disk file o_DS1_WFK.nc
 Initialisation of the first-order wave-functions :
  ireadwf=   0

--- !BeginCycle
iteration_state: {dtset: 2, }
solver: {iscf: 7, nstep: 100, nline: 4, wfoptalg: 0, }
tolerances: {tolvrs: 1.00E-13, }
...
 
     iter   2DEtotal(Ha)        deltaE(Ha) residm    vres2
-ETOT  1   10.019538334844     -2.507E+03 1.028E+00 2.994E+03
 ETOT  2   5.7227368719446     -4.297E+00 1.042E-01 1.020E+02
 ETOT  3   5.5821449970008     -1.406E-01 1.240E-03 5.253E+00
 ETOT  4   5.5756766349359     -6.468E-03 1.747E-04 1.134E-01
 ETOT  5   5.5753604493098     -3.162E-04 7.744E-06 1.185E-02
 ETOT  6   5.5753416047678     -1.884E-05 1.028E-06 1.529E-04
 ETOT  7   5.5753404366164     -1.168E-06 5.806E-08 5.300E-06
 ETOT  8   5.5753403493377     -8.728E-08 9.047E-09 1.881E-07
 ETOT  9   5.5753403427802     -6.557E-09 6.029E-10 1.582E-08
 ETOT 10   5.5753403422386     -5.416E-10 7.397E-11 4.893E-10
 ETOT 11   5.5753403421918     -4.684E-11 6.585E-12 3.552E-11
 ETOT 12   5.5753403421868     -5.002E-12 7.434E-13 1.706E-12
 ETOT 13   5.5753403421932      6.366E-12 7.251E-14 1.326E-13
 ETOT 14   5.5753403421836     -9.550E-12 8.323E-15 2.222E-14
 
 At SCF step   14       vres2   =  2.22E-14 < tolvrs=  1.00E-13 =>converged.
================================================================================
 
 ----iterations are completed or convergence reached----
 
 Mean square residual over all n,k,spin=   67.502E-18; max=  83.235E-16
 
 Thirteen components of 2nd-order total energy (hartree) are
 1,2,3: 0th-order hamiltonian combined with 1st-order wavefunctions
     kin0=   2.97538680E+03 eigvalue=  -1.14479401E+02  local=  -1.01039664E+03
 4,5,6: 1st-order hamiltonian combined with 1st and 0th-order wfs
 loc psp =  -1.58614631E+03  Hartree=   4.53291344E+02     xc=  -1.16762868E+02
 note that "loc psp" includes a xc core correction that could be resolved
 7,8,9: eventually, occupation + non-local contributions
    edocc=   0.00000000E+00     enl0=   3.24121052E+02   enl1=  -3.43617427E+03
 1-9 gives the relaxation energy (to be shifted if some occ is /=2.0)
   erelax=  -2.51116029E+03
 10,11,12 Non-relaxation  contributions : frozen-wavefunctions and Ewald
 fr.local=   7.18999778E+02 fr.nonlo=   1.72356695E+03  Ewald=   9.88302849E+01
 13,14 Frozen wf xc core corrections (1) and (2)
 frxc 1  =  -1.06416989E+02  frxc 2 =   8.17556109E+01
 Resulting in :
 2DEtotal=    0.5575340342E+01 Ha. Also 2DEtotal=    0.151712726201E+03 eV
    (2DErelax=   -2.5111602932E+03 Ha. 2DEnonrelax=    2.5167356335E+03 Ha)
    (  non-var. 2DEtotal :    5.5753403491E+00 Ha)
 
 
--------------------------------------------------------------------------------
 Perturbation wavevector (in red.coord.)   0.500000  0.000000  0.000000
 Perturbation : displacement of atom   3   along direction   3
 Found     2 symmetries that leave the perturbation invariant.
 symkpt : the number of k-points, thanks to the symmetries,
 is reduced to    72 .
 
--------------------------------------------------------------------------------
 
-inwffil : will read wavefunctions from disk file o_DS1_WFK.nc
--------------------------------------------------------------------------------
 
-inwffil : will read wavefunctions from disk file o_DS1_WFK.nc
 Initialisation of the first-order wave-functions :
  ireadwf=   0

--- !BeginCycle
iteration_state: {dtset: 2, }
solver: {iscf: 7, nstep: 100, nline: 4, wfoptalg: 0, }
tolerances: {tolvrs: 1.00E-13, }
...
 
     iter   2DEtotal(Ha)        deltaE(Ha) residm    vres2
-ETOT  1   20.780957701772     -5.044E+03 2.899E+00 1.019E+04
 ETOT  2   11.784170984055     -8.997E+00 4.303E-01 3.104E+03
 ETOT  3   11.091001756933     -6.932E-01 7.866E-03 1.087E+02
 ETOT  4   11.075319188829     -1.568E-02 9.669E-04 1.562E+02
 ETOT  5   10.973690308668     -1.016E-01 1.602E-04 2.483E+00
 ETOT  6   10.972759316055     -9.310E-04 1.896E-05 2.116E-01
 ETOT  7   10.972710864564     -4.845E-05 6.457E-07 2.465E-02
 ETOT  8   10.972697599576     -1.326E-05 9.550E-08 2.839E-03
 ETOT  9   10.972697294593     -3.050E-07 1.485E-08 7.171E-04
 ETOT 10   10.972697061117     -2.335E-07 1.728E-09 1.325E-04
 ETOT 11   10.972697025678     -3.544E-08 2.229E-10 4.309E-06
 ETOT 12   10.972697024283     -1.395E-09 2.467E-11 1.176E-07
 ETOT 13   10.972697024168     -1.146E-10 2.397E-12 1.230E-08
 ETOT 14   10.972697024145     -2.274E-11 2.896E-13 2.393E-09
 ETOT 15   10.972697024133     -1.273E-11 3.713E-14 4.093E-10
 ETOT 16   10.972697024161      2.819E-11 2.982E-15 2.933E-11
 ETOT 17   10.972697024135     -2.638E-11 6.197E-16 3.320E-12
 ETOT 18   10.972697024115     -1.910E-11 3.235E-17 4.018E-13
 ETOT 19   10.972697024143      2.728E-11 6.426E-18 8.299E-14
 
 At SCF step   19       vres2   =  8.30E-14 < tolvrs=  1.00E-13 =>converged.
================================================================================
 
 ----iterations are completed or convergence reached----
 
 Mean square residual over all n,k,spin=   14.896E-20; max=  64.256E-19
 
 Thirteen components of 2nd-order total energy (hartree) are
 1,2,3: 0th-order hamiltonian combined with 1st-order wavefunctions
     kin0=   5.94737137E+03 eigvalue=  -2.29737577E+02  local=  -2.01746152E+03
 4,5,6: 1st-order hamiltonian combined with 1st and 0th-order wfs
 loc psp =  -3.24197527E+03  Hartree=   9.41324706E+02     xc=  -2.33124496E+02
 note that "loc psp" includes a xc core correction that could be resolved
 7,8,9: eventually, occupation + non-local contributions
    edocc=   0.00000000E+00     enl0=   6.45402107E+02   enl1=  -6.86557387E+03
 1-9 gives the relaxation energy (to be shifted if some occ is /=2.0)
   erelax=  -5.05377456E+03
 10,11,12 Non-relaxation  contributions : frozen-wavefunctions and Ewald
 fr.local=   1.43855979E+03 fr.nonlo=   3.44264242E+03  Ewald=   2.31599887E+02
 13,14 Frozen wf xc core corrections (1) and (2)
 frxc 1  =  -2.11854598E+02  frxc 2 =   1.63799754E+02
 Resulting in :
 2DEtotal=    0.1097269702E+02 Ha. Also 2DEtotal=    0.298582270703E+03 eV
    (2DErelax=   -5.0537745588E+03 Ha. 2DEnonrelax=    5.0647472559E+03 Ha)
    (  non-var. 2DEtotal :    1.0972684211E+01 Ha)
 
 
--------------------------------------------------------------------------------
 Perturbation wavevector (in red.coord.)   0.500000  0.000000  0.000000
 Perturbation : displacement of atom   5   along direction   1
 Found     2 symmetries that leave the perturbation invariant.
 symkpt : the number of k-points, thanks to the symmetries,
 is reduced to    72 .
 
--------------------------------------------------------------------------------
 
-inwffil : will read wavefunctions from disk file o_DS1_WFK.nc
--------------------------------------------------------------------------------
 
-inwffil : will read wavefunctions from disk file o_DS1_WFK.nc
 Initialisation of the first-order wave-functions :
  ireadwf=   0

--- !BeginCycle
iteration_state: {dtset: 2, }
solver: {iscf: 7, nstep: 100, nline: 4, wfoptalg: 0, }
tolerances: {tolvrs: 1.00E-13, }
...
 
     iter   2DEtotal(Ha)        deltaE(Ha) residm    vres2
-ETOT  1   11.886061633396     -2.568E+03 9.237E-01 1.985E+04
 ETOT  2   7.7982533237282     -4.088E+00 9.877E-02 1.072E+04
 ETOT  3   6.4815246080789     -1.317E+00 2.806E-03 5.191E+02
 ETOT  4   6.5172857515140      3.576E-02 7.559E-04 4.831E+02
 ETOT  5   6.3376208633413     -1.797E-01 3.046E-04 2.620E+01
 ETOT  6   6.3332969800822     -4.324E-03 3.738E-05 1.271E+00
 ETOT  7   6.3332907678168     -6.212E-06 1.832E-06 4.309E-01
 ETOT  8   6.3330644481844     -2.263E-04 4.828E-07 1.158E-01
 ETOT  9   6.3330306959156     -3.375E-05 8.030E-08 1.507E-03
 ETOT 10   6.3330302373383     -4.586E-07 3.964E-09 3.535E-04
 ETOT 11   6.3330300276380     -2.097E-07 3.342E-10 2.284E-05
 ETOT 12   6.3330300194821     -8.156E-09 6.233E-11 2.172E-06
 ETOT 13   6.3330300189768     -5.052E-10 3.239E-12 1.918E-07
 ETOT 14   6.3330300188809     -9.595E-11 3.533E-13 2.805E-08
 ETOT 15   6.3330300188472     -3.365E-11 1.377E-13 4.143E-09
 ETOT 16   6.3330300188550      7.731E-12 5.943E-15 2.470E-10
 ETOT 17   6.3330300188532     -1.819E-12 9.216E-16 7.083E-11
 ETOT 18   6.3330300188504     -2.728E-12 1.083E-16 5.658E-12
 ETOT 19   6.3330300188481     -2.274E-12 2.379E-17 1.353E-12
 ETOT 20   6.3330300188459     -2.274E-12 1.526E-18 4.065E-14
 
 At SCF step   20       vres2   =  4.06E-14 < tolvrs=  1.00E-13 =>converged.
================================================================================
 
 ----iterations are completed or convergence reached----
 
 Mean square residual over all n,k,spin=   17.183E-20; max=  15.259E-19
 
 Thirteen components of 2nd-order total energy (hartree) are
 1,2,3: 0th-order hamiltonian combined with 1st-order wavefunctions
     kin0=   2.95149231E+03 eigvalue=  -1.11310933E+02  local=  -9.95005345E+02
 4,5,6: 1st-order hamiltonian combined with 1st and 0th-order wfs
 loc psp =  -1.72171131E+03  Hartree=   5.23121474E+02     xc=  -1.15764020E+02
 note that "loc psp" includes a xc core correction that could be resolved
 7,8,9: eventually, occupation + non-local contributions
    edocc=   0.00000000E+00     enl0=   3.21319591E+02   enl1=  -3.42599482E+03
 1-9 gives the relaxation energy (to be shifted if some occ is /=2.0)
   erelax=  -2.57385306E+03
 10,11,12 Non-relaxation  contributions : frozen-wavefunctions and Ewald
 fr.local=   7.18999778E+02 fr.nonlo=   1.72356695E+03  Ewald=   1.62895324E+02
 13,14 Frozen wf xc core corrections (1) and (2)
 frxc 1  =  -1.07031574E+02  frxc 2 =   8.17556109E+01
 Resulting in :
 2DEtotal=    0.6333030019E+01 Ha. Also 2DEtotal=    0.172330510840E+03 eV
    (2DErelax=   -2.5738530575E+03 Ha. 2DEnonrelax=    2.5801860875E+03 Ha)
    (  non-var. 2DEtotal :    6.3330230244E+00 Ha)
 
 
--------------------------------------------------------------------------------
 Perturbation wavevector (in red.coord.)   0.500000  0.000000  0.000000
 Perturbation : displacement of atom   5   along direction   2
 The set of symmetries contains only one element for this perturbation.
 symkpt : not enough symmetry to change the number of k points.
 
--------------------------------------------------------------------------------
 
-inwffil : will read wavefunctions from disk file o_DS1_WFK.nc
--------------------------------------------------------------------------------
 
-inwffil : will read wavefunctions from disk file o_DS1_WFK.nc
 Initialisation of the first-order wave-functions :
  ireadwf=   0

--- !BeginCycle
iteration_state: {dtset: 2, }
solver: {iscf: 7, nstep: 100, nline: 4, wfoptalg: 0, }
tolerances: {tolvrs: 1.00E-13, }
...
 
     iter   2DEtotal(Ha)        deltaE(Ha) residm    vres2
-ETOT  1   9.7467014624385     -2.503E+03 1.057E+00 3.022E+03
 ETOT  2   5.4580971234182     -4.289E+00 1.329E-01 1.099E+02
 ETOT  3   5.3109265331345     -1.472E-01 2.345E-03 4.977E+00
 ETOT  4   5.3044658736831     -6.461E-03 1.434E-04 1.142E-01
 ETOT  5   5.3041530790160     -3.128E-04 1.641E-05 1.059E-02
 ETOT  6   5.3041338648691     -1.921E-05 9.813E-07 1.577E-04
 ETOT  7   5.3041325731961     -1.292E-06 1.830E-07 4.453E-06
 ETOT  8   5.3041324722849     -1.009E-07 9.920E-09 1.477E-07
 ETOT  9   5.3041324642336     -8.051E-09 2.044E-09 1.290E-08
 ETOT 10   5.3041324635215     -7.121E-10 1.069E-10 3.809E-10
 ETOT 11   5.3041324634537     -6.776E-11 2.279E-11 3.683E-11
 ETOT 12   5.3041324634532     -4.547E-13 1.170E-12 3.283E-12
 ETOT 13   5.3041324634569      3.638E-12 2.518E-13 2.048E-13
 ETOT 14   5.3041324634555     -1.364E-12 1.298E-14 6.638E-14
 
 At SCF step   14       vres2   =  6.64E-14 < tolvrs=  1.00E-13 =>converged.
================================================================================
 
 ----iterations are completed or convergence reached----
 
 Mean square residual over all n,k,spin=   91.251E-18; max=  12.980E-15
 
 Thirteen components of 2nd-order total energy (hartree) are
 1,2,3: 0th-order hamiltonian combined with 1st-order wavefunctions
     kin0=   2.96893694E+03 eigvalue=  -1.14054396E+02  local=  -1.00591549E+03
 4,5,6: 1st-order hamiltonian combined with 1st and 0th-order wfs
 loc psp =  -1.58597751E+03  Hartree=   4.53416001E+02     xc=  -1.16594269E+02
 note that "loc psp" includes a xc core correction that could be resolved
 7,8,9: eventually, occupation + non-local contributions
    edocc=   0.00000000E+00     enl0=   3.21509866E+02   enl1=  -3.42861980E+03
 1-9 gives the relaxation energy (to be shifted if some occ is /=2.0)
   erelax=  -2.50729866E+03
 10,11,12 Non-relaxation  contributions : frozen-wavefunctions and Ewald
 fr.local=   7.19306145E+02 fr.nonlo=   1.71901464E+03  Ewald=   9.88302849E+01
 13,14 Frozen wf xc core corrections (1) and (2)
 frxc 1  =  -1.06451919E+02  frxc 2 =   8.19036383E+01
 Resulting in :
 2DEtotal=    0.5304132463E+01 Ha. Also 2DEtotal=    0.144332784507E+03 eV
    (2DErelax=   -2.5072986553E+03 Ha. 2DEnonrelax=    2.5126027877E+03 Ha)
    (  non-var. 2DEtotal :    5.3041324961E+00 Ha)
 
 
--------------------------------------------------------------------------------
 Perturbation wavevector (in red.coord.)   0.500000  0.000000  0.000000
 Perturbation : displacement of atom   5   along direction   3
 Found     2 symmetries that leave the perturbation invariant.
 symkpt : the number of k-points, thanks to the symmetries,
 is reduced to    72 .
 
--------------------------------------------------------------------------------
 
-inwffil : will read wavefunctions from disk file o_DS1_WFK.nc
--------------------------------------------------------------------------------
 
-inwffil : will read wavefunctions from disk file o_DS1_WFK.nc
 Initialisation of the first-order wave-functions :
  ireadwf=   0

--- !BeginCycle
iteration_state: {dtset: 2, }
solver: {iscf: 7, nstep: 100, nline: 4, wfoptalg: 0, }
tolerances: {tolvrs: 1.00E-13, }
...
 
     iter   2DEtotal(Ha)        deltaE(Ha) residm    vres2
-ETOT  1   20.797574189591     -5.044E+03 2.936E+00 1.025E+04
 ETOT  2   11.877779281410     -8.920E+00 4.168E-01 3.585E+03
 ETOT  3   11.128741330730     -7.490E-01 8.047E-03 1.192E+02
 ETOT  4   11.128534860929     -2.065E-04 7.254E-04 1.587E+02
 ETOT  5   11.037967032319     -9.057E-02 1.894E-04 5.960E+00
 ETOT  6   11.036326000182     -1.641E-03 1.283E-05 2.263E-01
 ETOT  7   11.036285569738     -4.043E-05 1.517E-06 9.937E-02
 ETOT  8   11.036224033031     -6.154E-05 2.905E-07 1.006E-02
 ETOT  9   11.036218335359     -5.698E-06 2.335E-08 2.275E-04
 ETOT 10   11.036218226458     -1.089E-07 1.092E-09 1.265E-04
 ETOT 11   11.036218200067     -2.639E-08 1.899E-10 1.830E-05
 ETOT 12   11.036218196507     -3.560E-09 3.074E-11 1.501E-06
 ETOT 13   11.036218196003     -5.048E-10 3.549E-12 1.828E-08
 ETOT 14   11.036218196049      4.638E-11 1.277E-13 1.500E-08
 ETOT 15   11.036218195996     -5.275E-11 2.436E-14 5.024E-09
 ETOT 16   11.036218195977     -1.910E-11 3.245E-15 1.733E-10
 ETOT 17   11.036218196016      3.911E-11 4.235E-16 6.099E-12
 ETOT 18   11.036218195990     -2.638E-11 4.111E-17 6.416E-13
 ETOT 19   11.036218196028      3.820E-11 4.423E-18 1.417E-13
 ETOT 20   11.036218196011     -1.728E-11 3.180E-19 2.101E-14
 
 At SCF step   20       vres2   =  2.10E-14 < tolvrs=  1.00E-13 =>converged.
================================================================================
 
 ----iterations are completed or convergence reached----
 
 Mean square residual over all n,k,spin=   28.530E-21; max=  31.802E-20
 
 Thirteen components of 2nd-order total energy (hartree) are
 1,2,3: 0th-order hamiltonian combined with 1st-order wavefunctions
     kin0=   5.94598144E+03 eigvalue=  -2.29503107E+02  local=  -2.01643591E+03
 4,5,6: 1st-order hamiltonian combined with 1st and 0th-order wfs
 loc psp =  -3.24208089E+03  Hartree=   9.41344577E+02     xc=  -2.33105041E+02
 note that "loc psp" includes a xc core correction that could be resolved
 7,8,9: eventually, occupation + non-local contributions
    edocc=   0.00000000E+00     enl0=   6.45429531E+02   enl1=  -6.86534208E+03
 1-9 gives the relaxation energy (to be shifted if some occ is /=2.0)
   erelax=  -5.05371147E+03
 10,11,12 Non-relaxation  contributions : frozen-wavefunctions and Ewald
 fr.local=   1.43855979E+03 fr.nonlo=   3.44264242E+03  Ewald=   2.31599887E+02
 13,14 Frozen wf xc core corrections (1) and (2)
 frxc 1  =  -2.11854162E+02  frxc 2 =   1.63799754E+02
 Resulting in :
 2DEtotal=    0.1103621820E+02 Ha. Also 2DEtotal=    0.300310769694E+03 eV
    (2DErelax=   -5.0537114736E+03 Ha. 2DEnonrelax=    5.0647476918E+03 Ha)
    (  non-var. 2DEtotal :    1.1036209340E+01 Ha)
 
================================================================================
 
 ---- first-order wavefunction calculations are completed ----
 
 
 ==> Compute Derivative Database <==
  
  2nd-order matrix (non-cartesian coordinates, masses not included,
   asr not included )
     j1       j2             matrix element
  dir pert dir pert     real part     imaginary part
  
   1    1   1    1        13.3067856592         0.0000000000
   1    1   2    1        -0.0000000000         0.0000000000
   1    1   3    1        -0.0000000000         0.0000000000
   1    1   1    2         0.0000000000         0.0000000000
   1    1   2    2        -0.0000000000        -0.0000000000
   1    1   3    2        -0.0000000000         0.0000000000
   1    1   1    3         0.0000000000         0.0000000000
   1    1   2    3        -0.0000000000         0.0000000000
   1    1   3    3        -1.2109188688        -0.0000000000
   1    1   1    4         0.0000000000         0.0000000000
   1    1   2    4         0.0000000000         0.0000000000
   1    1   3    4         1.2109188688         0.0000000000
   1    1   1    5        -3.5764935095         0.0000000000
   1    1   2    5         0.0000000000         0.0000000000
   1    1   3    5        -0.0000000000         0.0000000000
   1    1   1    6        -3.5764935095         0.0000000000
   1    1   2    6         0.0000000000        -0.0000000000
   1    1   3    6        -0.0000000000        -0.0000000000
  
   2    1   1    1        -0.0000000000         0.0000000000
   2    1   2    1         2.0823606458         0.0000000000
   2    1   3    1         0.0000000000         0.0000000000
   2    1   1    2        -0.0000000000        -0.0000000000
   2    1   2    2        -0.0000000000         0.0000000000
   2    1   3    2        -0.0000000000         0.0000000000
   2    1   1    3        -0.0000000000         0.0000000000
   2    1   2    3         0.0000000000        -0.0000000000
   2    1   3    3         0.0000000000        -0.0000000000
   2    1   1    4         0.0000000000         0.0000000000
   2    1   2    4         0.0000000000        -0.0000000000
   2    1   3    4        -0.0000000000        -0.0000000000
   2    1   1    5         0.0000000000         0.0000000000
   2    1   2    5        -0.3875563510         0.0000000000
   2    1   3    5        -0.0000000000        -0.0000000000
   2    1   1    6         0.0000000000        -0.0000000000
   2    1   2    6        -0.3875563510         0.0000000000
   2    1   3    6         0.0000000000        -0.0000000000
  
   3    1   1    1        -0.0000000000         0.0000000000
   3    1   2    1         0.0000000000         0.0000000000
   3    1   3    1        10.9200711785         0.0000000000
   3    1   1    2        -0.0000000000         0.0000000000
   3    1   2    2        -0.0000000000         0.0000000000
   3    1   3    2        -0.0000000000         0.0000000000
   3    1   1    3         1.6981405741        -0.0000000000
   3    1   2    3         0.0000000000        -0.0000000000
   3    1   3    3         0.0000000000         0.0000000000
   3    1   1    4        -1.6981405741         0.0000000000
   3    1   2    4        -0.0000000000        -0.0000000000
   3    1   3    4         0.0000000000         0.0000000000
   3    1   1    5        -0.0000000000         0.0000000000
   3    1   2    5        -0.0000000000        -0.0000000000
   3    1   3    5        -1.4510886875         0.0000000000
   3    1   1    6        -0.0000000000        -0.0000000000
   3    1   2    6         0.0000000000        -0.0000000000
   3    1   3    6        -1.4510886875         0.0000000000
  
   1    2   1    1         0.0000000000        -0.0000000000
   1    2   2    1        -0.0000000000         0.0000000000
   1    2   3    1        -0.0000000000        -0.0000000000
   1    2   1    2        14.0613663092         0.0000000000
   1    2   2    2        -0.0000000000         0.0000000000
   1    2   3    2        -0.0000000000         0.0000000000
   1    2   1    3        -3.5170501174         0.0000000000
   1    2   2    3         0.0000000000        -0.0000000000
   1    2   3    3        -0.0000000000        -0.0000000000
   1    2   1    4        -3.5170501174         0.0000000000
   1    2   2    4         0.0000000000         0.0000000000
   1    2   3    4        -0.0000000000         0.0000000000
   1    2   1    5         0.0000000000        -0.0000000000
   1    2   2    5        -0.0000000000        -0.0000000000
   1    2   3    5        -1.7085244955        -0.0000000000
   1    2   1    6         0.0000000000        -0.0000000000
   1    2   2    6         0.0000000000        -0.0000000000
   1    2   3    6         1.7085244955         0.0000000000
  
   2    2   1    1        -0.0000000000         0.0000000000
   2    2   2    1        -0.0000000000        -0.0000000000
   2    2   3    1        -0.0000000000        -0.0000000000
   2    2   1    2        -0.0000000000         0.0000000000
   2    2   2    2         2.1848077318         0.0000000000
   2    2   3    2         0.0000000000         0.0000000000
   2    2   1    3         0.0000000000        -0.0000000000
   2    2   2    3        -0.5656546988        -0.0000000000
   2    2   3    3         0.0000000000         0.0000000000
   2    2   1    4         0.0000000000         0.0000000000
   2    2   2    4        -0.5656546988        -0.0000000000
   2    2   3    4        -0.0000000000         0.0000000000
   2    2   1    5        -0.0000000000        -0.0000000000
   2    2   2    5         0.0000000000         0.0000000000
   2    2   3    5         0.0000000000         0.0000000000
   2    2   1    6         0.0000000000        -0.0000000000
   2    2   2    6         0.0000000000         0.0000000000
   2    2   3    6        -0.0000000000         0.0000000000
  
   3    2   1    1        -0.0000000000        -0.0000000000
   3    2   2    1        -0.0000000000        -0.0000000000
   3    2   3    1        -0.0000000000        -0.0000000000
   3    2   1    2        -0.0000000000         0.0000000000
   3    2   2    2         0.0000000000         0.0000000000
   3    2   3    2        11.6781272306         0.0000000000
   3    2   1    3        -0.0000000000        -0.0000000000
   3    2   2    3         0.0000000000         0.0000000000
   3    2   3    3        -1.7737475838         0.0000000000
   3    2   1    4        -0.0000000000         0.0000000000
   3    2   2    4        -0.0000000000         0.0000000000
   3    2   3    4        -1.7737475838         0.0000000000
   3    2   1    5         1.5163656413         0.0000000000
   3    2   2    5         0.0000000000         0.0000000000
   3    2   3    5         0.0000000000        -0.0000000000
   3    2   1    6        -1.5163656413        -0.0000000000
   3    2   2    6        -0.0000000000         0.0000000000
   3    2   3    6         0.0000000000        -0.0000000000
  
   1    3   1    1         0.0000000000        -0.0000000000
   1    3   2    1        -0.0000000000        -0.0000000000
   1    3   3    1         1.6981408822         0.0000000000
   1    3   1    2        -3.5170538906        -0.0000000000
   1    3   2    2         0.0000000000         0.0000000000
   1    3   3    2        -0.0000000000         0.0000000000
   1    3   1    3         5.9905321442         0.0000000000
   1    3   2    3        -0.0000000000         0.0000000000
   1    3   3    3         0.0000000000        -0.0000000000
   1    3   1    4         2.4824124608         0.0000000000
   1    3   2    4         0.0000000000         0.0000000000
   1    3   3    4         0.0000000000         0.0000000000
   1    3   1    5         0.0000000000        -0.0000000000
   1    3   2    5         0.0000000000         0.0000000000
   1    3   3    5         0.0986927014         0.0000000000
   1    3   1    6         0.0000000000        -0.0000000000
   1    3   2    6         0.0000000000         0.0000000000
   1    3   3    6        -0.9948553304        -0.0000000000
  
   2    3   1    1        -0.0000000000        -0.0000000000
   2    3   2    1         0.0000000000         0.0000000000
   2    3   3    1         0.0000000000         0.0000000000
   2    3   1    2         0.0000000000         0.0000000000
   2    3   2    2        -0.5656547133         0.0000000000
   2    3   3    2         0.0000000000        -0.0000000000
   2    3   1    3        -0.0000000000         0.0000000000
   2    3   2    3         5.5753403491         0.0000000000
   2    3   3    3         0.0000000000         0.0000000000
   2    3   1    4         0.0000000000         0.0000000000
   2    3   2    4        -0.2844729538         0.0000000000
   2    3   3    4        -0.0000000000         0.0000000000
   2    3   1    5         0.0000000000         0.0000000000
   2    3   2    5        -0.0000000000        -0.0000000000
   2    3   3    5         0.0000000000         0.0000000000
   2    3   1    6         0.0000000000         0.0000000000
   2    3   2    6        -0.0000000000        -0.0000000000
   2    3   3    6         0.0000000000        -0.0000000000
  
   3    3   1    1        -1.2109186459         0.0000000000
   3    3   2    1         0.0000000000         0.0000000000
   3    3   3    1         0.0000000000        -0.0000000000
   3    3   1    2        -0.0000000000         0.0000000000
   3    3   2    2         0.0000000000        -0.0000000000
   3    3   3    2        -1.7737425626        -0.0000000000
   3    3   1    3         0.0000000000        -0.0000000000
   3    3   2    3         0.0000000000         0.0000000000
   3    3   3    3        10.9726842110         0.0000000000
   3    3   1    4         0.0000000000         0.0000000000
   3    3   2    4        -0.0000000000         0.0000000000
   3    3   3    4        -8.8286349359         0.0000000000
   3    3   1    5        -0.0628964351        -0.0000000000
   3    3   2    5         0.0000000000         0.0000000000
   3    3   3    5         0.0000000000         0.0000000000
   3    3   1    6         1.0029745390         0.0000000000
   3    3   2    6         0.0000000000        -0.0000000000
   3    3   3    6        -0.0000000000        -0.0000000000
  
   1    4   1    1         0.0000000000        -0.0000000000
   1    4   2    1         0.0000000000        -0.0000000000
   1    4   3    1        -1.6981408822        -0.0000000000
   1    4   1    2        -3.5170538906        -0.0000000000
   1    4   2    2         0.0000000000        -0.0000000000
   1    4   3    2        -0.0000000000        -0.0000000000
[...]
   1    6   1    3         0.0000000000         0.0000000000
   1    6   2    3         0.0000000000         0.0000000000
   1    6   3    3         0.0109136888        -0.0000000000
   1    6   1    4        -0.0000000000         0.0000000000
   1    6   2    4         0.0000000000         0.0000000000
   1    6   3    4         0.0006842989        -0.0000000000
   1    6   1    5         0.0257097803         0.0000000000
   1    6   2    5         0.0304310985         0.0000000000
   1    6   3    5         0.0000000000         0.0000000000
   1    6   1    6         0.1266357863         0.0000000000
   1    6   2    6         0.0111964097         0.0000000000
   1    6   3    6         0.0000000000         0.0000000000
  
   2    6   1    1        -0.0347021273         0.0000000000
   2    6   2    1        -0.0431369204        -0.0000000000
   2    6   3    1         0.0000000000         0.0000000000
   2    6   1    2         0.0000000000         0.0000000000
   2    6   2    2         0.0000000000         0.0000000000
   2    6   3    2        -0.0165000673         0.0000000000
   2    6   1    3         0.0000000000         0.0000000000
   2    6   2    3         0.0000000000         0.0000000000
   2    6   3    3         0.0109136888        -0.0000000000
   2    6   1    4         0.0000000000         0.0000000000
   2    6   2    4         0.0000000000         0.0000000000
   2    6   3    4         0.0006842989        -0.0000000000
   2    6   1    5         0.0304310985         0.0000000000
   2    6   2    5         0.0257097803         0.0000000000
   2    6   3    5        -0.0000000000         0.0000000000
   2    6   1    6         0.0111964097         0.0000000000
   2    6   2    6         0.1266357863         0.0000000000
   2    6   3    6        -0.0000000000         0.0000000000
  
   3    6   1    1        -0.0000000000         0.0000000000
   3    6   2    1         0.0000000000         0.0000000000
   3    6   3    1        -0.0157886924        -0.0000000000
   3    6   1    2         0.0185910016         0.0000000000
   3    6   2    2         0.0185910016         0.0000000000
   3    6   3    2         0.0000000000         0.0000000000
   3    6   1    3        -0.0108253411         0.0000000000
   3    6   2    3        -0.0108253411         0.0000000000
   3    6   3    3        -0.0000000000         0.0000000000
   3    6   1    4        -0.0010737953         0.0000000000
   3    6   2    4        -0.0010737953         0.0000000000
   3    6   3    4         0.0000000000        -0.0000000000
   3    6   1    5         0.0000000000         0.0000000000
   3    6   2    5        -0.0000000000         0.0000000000
   3    6   3    5        -0.0967917399         0.0000000000
   3    6   1    6         0.0000000000         0.0000000000
   3    6   2    6        -0.0000000000         0.0000000000
   3    6   3    6         0.1200808168         0.0000000000
 
  Phonon wavevector (reduced coordinates) :  0.50000  0.00000  0.00000
 Phonon energies in Hartree :
   3.676884E-04  5.022544E-04  5.186123E-04  6.232604E-04  8.196582E-04
   8.499310E-04  9.447981E-04  1.155477E-03  1.675394E-03  1.756101E-03
   1.949447E-03  1.991286E-03  2.029782E-03  2.091124E-03  2.520531E-03
   2.555303E-03  2.779715E-03  2.812645E-03
 Phonon frequencies in cm-1    :
-  8.069828E+01  1.102321E+02  1.138222E+02  1.367898E+02  1.798942E+02
-  1.865383E+02  2.073592E+02  2.535979E+02  3.677064E+02  3.854195E+02
-  4.278542E+02  4.370367E+02  4.454856E+02  4.589487E+02  5.531927E+02
-  5.608243E+02  6.100769E+02  6.173041E+02
 
== END DATASET(S) ==============================================================
================================================================================
  
 -outvars: echo values of variables after computation  --------
            acell      6.7784476387E+00  6.7784476387E+00  9.5867885420E+00 Bohr
              amu      1.78490000E+02  9.12240000E+01  1.59994000E+01
             ecut      2.50000000E+01 Hartree
           ecutsm      5.00000000E-01 Hartree
           etotal1    -1.7351268592E+02
           etotal2     1.1036218196E+01
            fcart1     0.0000000000E+00  0.0000000000E+00  1.4456028966E-19
                       0.0000000000E+00  0.0000000000E+00  1.4456028966E-19
                       0.0000000000E+00  0.0000000000E+00 -3.5439747686E-03
                       0.0000000000E+00  0.0000000000E+00  3.5439747686E-03
                       0.0000000000E+00  0.0000000000E+00 -3.5439747686E-03
                       0.0000000000E+00  0.0000000000E+00  3.5439747686E-03
            fcart2     0.0000000000E+00  0.0000000000E+00  0.0000000000E+00
                       0.0000000000E+00  0.0000000000E+00  0.0000000000E+00
                       0.0000000000E+00  0.0000000000E+00  0.0000000000E+00
                       0.0000000000E+00  0.0000000000E+00  0.0000000000E+00
                       0.0000000000E+00  0.0000000000E+00  0.0000000000E+00
                       0.0000000000E+00  0.0000000000E+00  0.0000000000E+00
-          fftalg         512
           getwfk1          0
           getwfk2          1
              ixc          11
           jdtset        1    2
              kpt      8.33333333E-02  8.33333333E-02  1.25000000E-01
                       2.50000000E-01  8.33333333E-02  1.25000000E-01
                       4.16666667E-01  8.33333333E-02  1.25000000E-01
                      -4.16666667E-01  8.33333333E-02  1.25000000E-01
                      -2.50000000E-01  8.33333333E-02  1.25000000E-01
                      -8.33333333E-02  8.33333333E-02  1.25000000E-01
                       8.33333333E-02  2.50000000E-01  1.25000000E-01
                       2.50000000E-01  2.50000000E-01  1.25000000E-01
                       4.16666667E-01  2.50000000E-01  1.25000000E-01
                      -4.16666667E-01  2.50000000E-01  1.25000000E-01
                      -2.50000000E-01  2.50000000E-01  1.25000000E-01
                      -8.33333333E-02  2.50000000E-01  1.25000000E-01
                       8.33333333E-02  4.16666667E-01  1.25000000E-01
                       2.50000000E-01  4.16666667E-01  1.25000000E-01
                       4.16666667E-01  4.16666667E-01  1.25000000E-01
                      -4.16666667E-01  4.16666667E-01  1.25000000E-01
                      -2.50000000E-01  4.16666667E-01  1.25000000E-01
                      -8.33333333E-02  4.16666667E-01  1.25000000E-01
                       8.33333333E-02 -4.16666667E-01  1.25000000E-01
                       2.50000000E-01 -4.16666667E-01  1.25000000E-01
                       4.16666667E-01 -4.16666667E-01  1.25000000E-01
                      -4.16666667E-01 -4.16666667E-01  1.25000000E-01
                      -2.50000000E-01 -4.16666667E-01  1.25000000E-01
                      -8.33333333E-02 -4.16666667E-01  1.25000000E-01
                       8.33333333E-02 -2.50000000E-01  1.25000000E-01
                       2.50000000E-01 -2.50000000E-01  1.25000000E-01
                       4.16666667E-01 -2.50000000E-01  1.25000000E-01
                      -4.16666667E-01 -2.50000000E-01  1.25000000E-01
                      -2.50000000E-01 -2.50000000E-01  1.25000000E-01
                      -8.33333333E-02 -2.50000000E-01  1.25000000E-01
                       8.33333333E-02 -8.33333333E-02  1.25000000E-01
                       2.50000000E-01 -8.33333333E-02  1.25000000E-01
                       4.16666667E-01 -8.33333333E-02  1.25000000E-01
                      -4.16666667E-01 -8.33333333E-02  1.25000000E-01
                      -2.50000000E-01 -8.33333333E-02  1.25000000E-01
                      -8.33333333E-02 -8.33333333E-02  1.25000000E-01
                       8.33333333E-02  8.33333333E-02  3.75000000E-01
                       2.50000000E-01  8.33333333E-02  3.75000000E-01
                       4.16666667E-01  8.33333333E-02  3.75000000E-01
                      -4.16666667E-01  8.33333333E-02  3.75000000E-01
                      -2.50000000E-01  8.33333333E-02  3.75000000E-01
                      -8.33333333E-02  8.33333333E-02  3.75000000E-01
                       8.33333333E-02  2.50000000E-01  3.75000000E-01
                       2.50000000E-01  2.50000000E-01  3.75000000E-01
                       4.16666667E-01  2.50000000E-01  3.75000000E-01
                      -4.16666667E-01  2.50000000E-01  3.75000000E-01
                      -2.50000000E-01  2.50000000E-01  3.75000000E-01
                      -8.33333333E-02  2.50000000E-01  3.75000000E-01
                       8.33333333E-02  4.16666667E-01  3.75000000E-01
                       2.50000000E-01  4.16666667E-01  3.75000000E-01
                       outvar_i_n : Printing only first  50 k-points.
           kptopt           3
         kptrlatt        6    0    0      0    6    0      0    0    4
          kptrlen      3.83471542E+01
P           mkmem           8
P          mkqmem           8
P          mk1mem           8
            natom           6
            nband          24
           ndtset           2
            ngfft          32      32      45
             nkpt         144
             nqpt1          0
             nqpt2          1
            nstep         100
             nsym          16
           ntypat           3
              occ      2.000000  2.000000  2.000000  2.000000  2.000000  2.000000
                       2.000000  2.000000  2.000000  2.000000  2.000000  2.000000
                       2.000000  2.000000  2.000000  2.000000  2.000000  2.000000
                       2.000000  2.000000  2.000000  2.000000  2.000000  2.000000
        optdriver1          0
        optdriver2          1
        pawecutdg      3.00000000E+01 Hartree
         pawxcdev           0
              qpt1     0.00000000E+00  0.00000000E+00  0.00000000E+00
              qpt2     5.00000000E-01  0.00000000E+00  0.00000000E+00
          rfatpol1          1       1
          rfatpol2          1       6
            rfdir1          0       0       0
            rfdir2          1       1       1
           rfphon1          0
           rfphon2          1
            rprim      7.0710670000E-01  7.0710670000E-01  0.0000000000E+00
                      -7.0710670000E-01  7.0710670000E-01  0.0000000000E+00
                       0.0000000000E+00  0.0000000000E+00  1.0000000000E+00
           shiftk      5.00000000E-01  5.00000000E-01  5.00000000E-01
          spgroup         123
           strten1    -1.9212882222E-04 -1.9212882222E-04 -1.4750080467E-04
                       0.0000000000E+00  0.0000000000E+00  0.0000000000E+00
           strten2     0.0000000000E+00  0.0000000000E+00  0.0000000000E+00
                       0.0000000000E+00  0.0000000000E+00  0.0000000000E+00
        symmorphi           0
           symrel      1  0  0   0  1  0   0  0  1      -1  0  0   0 -1  0   0  0 -1
                      -1  0  0   0  1  0   0  0 -1       1  0  0   0 -1  0   0  0  1
                      -1  0  0   0 -1  0   0  0  1       1  0  0   0  1  0   0  0 -1
                       1  0  0   0 -1  0   0  0 -1      -1  0  0   0  1  0   0  0  1
                       0  1  0   1  0  0   0  0  1       0 -1  0  -1  0  0   0  0 -1
                       0 -1  0   1  0  0   0  0 -1       0  1  0  -1  0  0   0  0  1
                       0 -1  0  -1  0  0   0  0  1       0  1  0   1  0  0   0  0 -1
                       0  1  0  -1  0  0   0  0 -1       0 -1  0   1  0  0   0  0  1
           toldfe1     1.00000000E-13 Hartree
           toldfe2     0.00000000E+00 Hartree
           tolvrs1     0.00000000E+00
           tolvrs2     1.00000000E-13
            typat      1  2  3  3  3  3
              wtk        0.00694    0.00694    0.00694    0.00694    0.00694    0.00694
                         0.00694    0.00694    0.00694    0.00694    0.00694    0.00694
                         0.00694    0.00694    0.00694    0.00694    0.00694    0.00694
                         0.00694    0.00694    0.00694    0.00694    0.00694    0.00694
                         0.00694    0.00694    0.00694    0.00694    0.00694    0.00694
                         0.00694    0.00694    0.00694    0.00694    0.00694    0.00694
                         0.00694    0.00694    0.00694    0.00694    0.00694    0.00694
                         0.00694    0.00694    0.00694    0.00694    0.00694    0.00694
                         0.00694    0.00694
                       outvars : Printing only first  50 k-points.
           xangst      0.0000000000E+00  0.0000000000E+00  0.0000000000E+00
                       0.0000000000E+00  2.5363917329E+00  2.5365550000E+00
                       1.2681958664E+00  1.2681958664E+00  1.2682775000E+00
                       1.2681958664E+00  1.2681958664E+00  3.8048325000E+00
                      -1.2681958664E+00  1.2681958664E+00  1.2682775000E+00
                      -1.2681958664E+00  1.2681958664E+00  3.8048325000E+00
            xcart      0.0000000000E+00  0.0000000000E+00  0.0000000000E+00
                       0.0000000000E+00  4.7930857409E+00  4.7933942710E+00
                       2.3965428704E+00  2.3965428704E+00  2.3966971355E+00
                       2.3965428704E+00  2.3965428704E+00  7.1900914065E+00
                      -2.3965428704E+00  2.3965428704E+00  2.3966971355E+00
                      -2.3965428704E+00  2.3965428704E+00  7.1900914065E+00
             xred      0.0000000000E+00  0.0000000000E+00  0.0000000000E+00
                       5.0000000000E-01  5.0000000000E-01  5.0000000000E-01
                       5.0000000000E-01  0.0000000000E+00  2.5000000000E-01
                       5.0000000000E-01  0.0000000000E+00  7.5000000000E-01
                       0.0000000000E+00  5.0000000000E-01  2.5000000000E-01
                       0.0000000000E+00  5.0000000000E-01  7.5000000000E-01
            znucl       72.00000   40.00000    8.00000
 
================================================================================


- Timing analysis has been suppressed with timopt=0



================================================================================

 Suggested references for the acknowledgment of ABINIT usage.

 The users of ABINIT have little formal obligations with respect to the ABINIT group
 (those specified in the GNU General Public License, http://www.gnu.org/copyleft/gpl.txt).
 However, it is common practice in the scientific literature,
 to acknowledge the efforts of people that have made the research possible.
 In this spirit, please find below suggested citations of work written by ABINIT developers,
 corresponding to implementations inside of ABINIT that you have used in the present run.
 Note also that it will be of great value to readers of publications presenting these results,
 to read papers enabling them to understand the theoretical formalism and details
 of the ABINIT implementation.
 For information on why they are suggested, see also https://docs.abinit.org/theory/acknowledgments.
-
- [1] Specification of an extensible and portable file format for electronic structure and crystallographic data
- X. Gonze, C.-O. Almbladh, A. Cucca, D. Caliste, C. Freysoldt, M. Marques, V. Olevano, Y. Pouillon, M.J. Verstraete,
- Comput. Material Science 43, 1056 (2008).
- Comment: to be cited in case the ETSF_IO file format is used, i.e. iomode=3.
- DOI and bibtex: see https://docs.abinit.org/theory/bibliography/#gonze2008
-
- [2] The Abinit project: Impact, environment and recent developments.
- Computer Phys. Comm. 248, 107042 (2020).
- X.Gonze, B. Amadon, G. Antonius, F.Arnardi, L.Baguet, J.-M.Beuken,
- J.Bieder, F.Bottin, J.Bouchet, E.Bousquet, N.Brouwer, F.Bruneval,
- G.Brunin, T.Cavignac, J.-B. Charraud, Wei Chen, M.Cote, S.Cottenier,
- J.Denier, G.Geneste, Ph.Ghosez, M.Giantomassi, Y.Gillet, O.Gingras,
- D.R.Hamann, G.Hautier, Xu He, N.Helbig, N.Holzwarth, Y.Jia, F.Jollet,
- W.Lafargue-Dit-Hauret, K.Lejaeghere, M.A.L.Marques, A.Martin, C.Martins,
- H.P.C. Miranda, F.Naccarato, K. Persson, G.Petretto, V.Planes, Y.Pouillon,
- S.Prokhorenko, F.Ricci, G.-M.Rignanese, A.H.Romero, M.M.Schmitt, M.Torrent,
- M.J.van Setten, B.Van Troeye, M.J.Verstraete, G.Zerah and J.W.Zwanzig
- Comment: the fifth generic paper describing the ABINIT project.
- Note that a version of this paper, that is not formatted for Computer Phys. Comm. 
- is available at https://www.abinit.org/sites/default/files/ABINIT20.pdf .
- The licence allows the authors to put it on the Web.
- DOI and bibtex: see https://docs.abinit.org/theory/bibliography/#gonze2020
-
- [3] First-principles responses of solids to atomic displacements and homogeneous electric fields:,
- implementation of a conjugate-gradient algorithm. X. Gonze, Phys. Rev. B55, 10337 (1997).
- Comment: Non-vanishing rfphon and/or rfelfd, in the norm-conserving case.
- DOI and bibtex: see https://docs.abinit.org/theory/bibliography/#gonze1997
-
- [4] Dynamical matrices, Born effective charges, dielectric permittivity tensors, and ,
- interatomic force constants from density-functional perturbation theory,
- X. Gonze and C. Lee, Phys. Rev. B55, 10355 (1997).
- Comment: Non-vanishing rfphon and/or rfelfd, in the norm-conserving case.
- DOI and bibtex: see https://docs.abinit.org/theory/bibliography/#gonze1997a
-
- [5] Optimized norm-conserving Vanderbilt pseudopotentials.
- D.R. Hamann, Phys. Rev. B 88, 085117 (2013).
- Comment: Some pseudopotential generated using the ONCVPSP code were used.
- DOI and bibtex: see https://docs.abinit.org/theory/bibliography/#hamann2013
-
- [6] ABINIT: Overview, and focus on selected capabilities
- J. Chem. Phys. 152, 124102 (2020).
- A. Romero, D.C. Allan, B. Amadon, G. Antonius, T. Applencourt, L.Baguet,
- J.Bieder, F.Bottin, J.Bouchet, E.Bousquet, F.Bruneval,
- G.Brunin, D.Caliste, M.Cote,
- J.Denier, C. Dreyer, Ph.Ghosez, M.Giantomassi, Y.Gillet, O.Gingras,
- D.R.Hamann, G.Hautier, F.Jollet, G. Jomard,
- A.Martin, 
- H.P.C. Miranda, F.Naccarato, G.Petretto, N.A. Pike, V.Planes,
- S.Prokhorenko, T. Rangel, F.Ricci, G.-M.Rignanese, M.Royo, M.Stengel, M.Torrent,
- M.J.van Setten, B.Van Troeye, M.J.Verstraete, J.Wiktor, J.W.Zwanziger, and X.Gonze.
- Comment: a global overview of ABINIT, with focus on selected capabilities .
- Note that a version of this paper, that is not formatted for J. Chem. Phys 
- is available at https://www.abinit.org/sites/default/files/ABINIT20_JPC.pdf .
- The licence allows the authors to put it on the Web.
- DOI and bibtex: see https://docs.abinit.org/theory/bibliography/#romero2020
-
- [7] Recent developments in the ABINIT software package.
- Computer Phys. Comm. 205, 106 (2016).
- X.Gonze, F.Jollet, F.Abreu Araujo, D.Adams, B.Amadon, T.Applencourt,
- C.Audouze, J.-M.Beuken, J.Bieder, A.Bokhanchuk, E.Bousquet, F.Bruneval
- D.Caliste, M.Cote, F.Dahm, F.Da Pieve, M.Delaveau, M.Di Gennaro,
- B.Dorado, C.Espejo, G.Geneste, L.Genovese, A.Gerossier, M.Giantomassi,
- Y.Gillet, D.R.Hamann, L.He, G.Jomard, J.Laflamme Janssen, S.Le Roux,
- A.Levitt, A.Lherbier, F.Liu, I.Lukacevic, A.Martin, C.Martins,
- M.J.T.Oliveira, S.Ponce, Y.Pouillon, T.Rangel, G.-M.Rignanese,
- A.H.Romero, B.Rousseau, O.Rubel, A.A.Shukri, M.Stankovski, M.Torrent,
- M.J.Van Setten, B.Van Troeye, M.J.Verstraete, D.Waroquier, J.Wiktor,
- B.Xu, A.Zhou, J.W.Zwanziger.
- Comment: the fourth generic paper describing the ABINIT project.
- Note that a version of this paper, that is not formatted for Computer Phys. Comm. 
- is available at https://www.abinit.org/sites/default/files/ABINIT16.pdf .
- The licence allows the authors to put it on the Web.
- DOI and bibtex: see https://docs.abinit.org/theory/bibliography/#gonze2016
-
- Proc.   0 individual time (sec): cpu=        267.7  wall=        268.1
 
================================================================================
 
 Calculation completed.
.Delivered   0 WARNINGs and   0 COMMENTs to log file.
+Overall time at end (sec) : cpu=       4819.7  wall=       4825.5
