
.Version 9.4.1 of ABINIT 
.(MPI version, prepared for a x86_64_linux_intel19.0 computer) 

.Copyright (C) 1998-2021 ABINIT group . 
 ABINIT comes with ABSOLUTELY NO WARRANTY.
 It is free software, and you are welcome to redistribute it
 under certain conditions (GNU General Public License,
 see ~abinit/COPYING or http://www.gnu.org/copyleft/gpl.txt).

 ABINIT is a project of the Universite Catholique de Louvain,
 Corning Inc. and other collaborators, see ~abinit/doc/developers/contributors.txt .
 Please read https://docs.abinit.org/theory/acknowledgments for suggested
 acknowledgments of the ABINIT effort.
 For more information, see https://www.abinit.org .

.Starting date : Thu  3 Jun 2021.
- ( at 18h15 )
  
- input  file    -> /workspace/jiahaoz/HZO/LG_Model/GroundP/HfO4/WaveVector/M/primitiveM
- output file    -> /workspace/jiahaoz/HZO/LG_Model/GroundP/HfO4/WaveVector/M/primitiveM.abo
- root for input  files -> i
- root for output files -> o
 
 
 DATASET    1 : the unit cell is not primitive
================================================================================
 Values of the parameters that define the memory need for DATASET  1.
     intxc =       0    ionmov =       0      iscf =       7    lmnmax =       8
     lnmax =       8     mgfft =      45  mpssoang =       4    mqgrid =    3001
     natom =       6  nloc_mem =       1    nspden =       1   nspinor =       1
    nsppol =       1      nsym =      16    n1xccc =    2501    ntypat =       2
    occopt =       1   xclevel =       2
-    mband =          24        mffmem =           1         mkmem =          12
       mpw =        2648          nfft =       46080          nkpt =         216
================================================================================
P This job should need less than                      28.558 Mbytes of memory.
  Rough estimation (10% accuracy) of disk space for files :
_ WF disk file :    209.463 Mbytes ; DEN or POT disk file :      0.354 Mbytes.
================================================================================
 
 
 DATASET    2 : the unit cell is not primitive
================================================================================
 Values of the parameters that define the memory need for DATASET  2 (RF).
     intxc =       0      iscf =       7    lmnmax =       8     lnmax =       8
     mgfft =      45  mpssoang =       4    mqgrid =    3001     natom =       6
  nloc_mem =       1    nspden =       1   nspinor =       1    nsppol =       1
      nsym =      16    n1xccc =    2501    ntypat =       2    occopt =       1
   xclevel =       2
-    mband =          24        mffmem =           1         mkmem =          12
-   mkqmem =          12        mk1mem =          12           mpw =        2662
      nfft =       46080          nkpt =         216
================================================================================
P This job should need less than                      53.334 Mbytes of memory.
  Rough estimation (10% accuracy) of disk space for files :
_ WF disk file :    210.570 Mbytes ; DEN or POT disk file :      0.354 Mbytes.
================================================================================
 
--------------------------------------------------------------------------------
------------- Echo of variables that govern the present computation ------------
--------------------------------------------------------------------------------
-
- outvars: echo of selected default values                                      
-   iomode0 =  3 , fftalg0 =512 , wfoptalg0 =  0
-
- outvars: echo of global parameters not present in the input file              
-  max_nthreads =    0
-
 -outvars: echo values of preprocessed input variables --------
            acell      6.7821515019E+00  6.7821515019E+00  9.5914334888E+00 Bohr
              amu      1.78490000E+02  1.59994000E+01
          chkprim           0
             ecut      2.50000000E+01 Hartree
           ecutsm      5.00000000E-01 Hartree
-          fftalg         512
           getwfk1          0
           getwfk2          1
           istwfk1       2    0    0    3    0    0    0    0    0    0
                         0    0    0    0    0    0    0    0    6    0
                         0    7    0    0    0    0    0    0    0    0
                         0    0    0    0    0    0    0    0    0    0
                         0    0    0    0    0    0    0    0    0    0
           istwfk2       1    0    0    1    0    0    0    0    0    0
                         0    0    0    0    0    0    0    0    1    0
                         0    1    0    0    0    0    0    0    0    0
                         0    0    0    0    0    0    0    0    0    0
                         0    0    0    0    0    0    0    0    0    0
                       outvar_i_n : Printing only first  50 k-points.
              ixc          11
           jdtset        1    2
              kpt      0.00000000E+00  0.00000000E+00  0.00000000E+00
                       1.66666667E-01  0.00000000E+00  0.00000000E+00
                       3.33333333E-01  0.00000000E+00  0.00000000E+00
                       5.00000000E-01  0.00000000E+00  0.00000000E+00
                      -3.33333333E-01  0.00000000E+00  0.00000000E+00
                      -1.66666667E-01  0.00000000E+00  0.00000000E+00
                       0.00000000E+00  1.66666667E-01  0.00000000E+00
                       1.66666667E-01  1.66666667E-01  0.00000000E+00
                       3.33333333E-01  1.66666667E-01  0.00000000E+00
                       5.00000000E-01  1.66666667E-01  0.00000000E+00
                      -3.33333333E-01  1.66666667E-01  0.00000000E+00
                      -1.66666667E-01  1.66666667E-01  0.00000000E+00
                       0.00000000E+00  3.33333333E-01  0.00000000E+00
                       1.66666667E-01  3.33333333E-01  0.00000000E+00
                       3.33333333E-01  3.33333333E-01  0.00000000E+00
                       5.00000000E-01  3.33333333E-01  0.00000000E+00
                      -3.33333333E-01  3.33333333E-01  0.00000000E+00
                      -1.66666667E-01  3.33333333E-01  0.00000000E+00
                       0.00000000E+00  5.00000000E-01  0.00000000E+00
                       1.66666667E-01  5.00000000E-01  0.00000000E+00
                       3.33333333E-01  5.00000000E-01  0.00000000E+00
                       5.00000000E-01  5.00000000E-01  0.00000000E+00
                      -3.33333333E-01  5.00000000E-01  0.00000000E+00
                      -1.66666667E-01  5.00000000E-01  0.00000000E+00
                       0.00000000E+00 -3.33333333E-01  0.00000000E+00
                       1.66666667E-01 -3.33333333E-01  0.00000000E+00
                       3.33333333E-01 -3.33333333E-01  0.00000000E+00
                       5.00000000E-01 -3.33333333E-01  0.00000000E+00
                      -3.33333333E-01 -3.33333333E-01  0.00000000E+00
                      -1.66666667E-01 -3.33333333E-01  0.00000000E+00
                       0.00000000E+00 -1.66666667E-01  0.00000000E+00
                       1.66666667E-01 -1.66666667E-01  0.00000000E+00
                       3.33333333E-01 -1.66666667E-01  0.00000000E+00
                       5.00000000E-01 -1.66666667E-01  0.00000000E+00
                      -3.33333333E-01 -1.66666667E-01  0.00000000E+00
                      -1.66666667E-01 -1.66666667E-01  0.00000000E+00
                       0.00000000E+00  0.00000000E+00  1.66666667E-01
                       1.66666667E-01  0.00000000E+00  1.66666667E-01
                       3.33333333E-01  0.00000000E+00  1.66666667E-01
                       5.00000000E-01  0.00000000E+00  1.66666667E-01
                      -3.33333333E-01  0.00000000E+00  1.66666667E-01
                      -1.66666667E-01  0.00000000E+00  1.66666667E-01
                       0.00000000E+00  1.66666667E-01  1.66666667E-01
                       1.66666667E-01  1.66666667E-01  1.66666667E-01
                       3.33333333E-01  1.66666667E-01  1.66666667E-01
                       5.00000000E-01  1.66666667E-01  1.66666667E-01
                      -3.33333333E-01  1.66666667E-01  1.66666667E-01
                      -1.66666667E-01  1.66666667E-01  1.66666667E-01
                       0.00000000E+00  3.33333333E-01  1.66666667E-01
                       1.66666667E-01  3.33333333E-01  1.66666667E-01
                       outvar_i_n : Printing only first  50 k-points.
           kptopt           3
         kptrlatt        6    0    0      0    6    0      0    0    6
          kptrlen      4.06929043E+01
P           mkmem          12
P          mkqmem          12
P          mk1mem          12
            natom           6
            nband          24
           ndtset           2
            ngfft          32      32      45
             nkpt         216
             nqpt1          0
             nqpt2          1
            nstep         100
             nsym          16
           ntypat           2
              occ      2.000000  2.000000  2.000000  2.000000  2.000000  2.000000
                       2.000000  2.000000  2.000000  2.000000  2.000000  2.000000
                       2.000000  2.000000  2.000000  2.000000  2.000000  2.000000
                       2.000000  2.000000  2.000000  2.000000  2.000000  2.000000
        optdriver1          0
        optdriver2          1
        pawecutdg      3.00000000E+01 Hartree
         pawxcdev           0
              qpt1     0.00000000E+00  0.00000000E+00  0.00000000E+00
              qpt2     5.00000000E-01  5.00000000E-01  0.00000000E+00
          rfatpol1          1       1
          rfatpol2          1       6
            rfdir1          0       0       0
            rfdir2          1       1       1
           rfphon1          0
           rfphon2          1
            rprim      7.0710670000E-01  7.0710670000E-01  0.0000000000E+00
                      -7.0710670000E-01  7.0710670000E-01  0.0000000000E+00
                       0.0000000000E+00  0.0000000000E+00  1.0000000000E+00
        symmorphi           0
           symrel      1  0  0   0  1  0   0  0  1      -1  0  0   0 -1  0   0  0 -1
                      -1  0  0   0  1  0   0  0 -1       1  0  0   0 -1  0   0  0  1
                      -1  0  0   0 -1  0   0  0  1       1  0  0   0  1  0   0  0 -1
                       1  0  0   0 -1  0   0  0 -1      -1  0  0   0  1  0   0  0  1
                       0  1  0   1  0  0   0  0  1       0 -1  0  -1  0  0   0  0 -1
                       0 -1  0   1  0  0   0  0 -1       0  1  0  -1  0  0   0  0  1
                       0 -1  0  -1  0  0   0  0  1       0  1  0   1  0  0   0  0 -1
                       0  1  0  -1  0  0   0  0 -1       0 -1  0   1  0  0   0  0  1
           toldfe1     1.00000000E-13 Hartree
           toldfe2     0.00000000E+00 Hartree
           tolvrs1     0.00000000E+00
           tolvrs2     1.00000000E-13
            typat      1  1  2  2  2  2
              wtk        0.00463    0.00463    0.00463    0.00463    0.00463    0.00463
                         0.00463    0.00463    0.00463    0.00463    0.00463    0.00463
                         0.00463    0.00463    0.00463    0.00463    0.00463    0.00463
                         0.00463    0.00463    0.00463    0.00463    0.00463    0.00463
                         0.00463    0.00463    0.00463    0.00463    0.00463    0.00463
                         0.00463    0.00463    0.00463    0.00463    0.00463    0.00463
                         0.00463    0.00463    0.00463    0.00463    0.00463    0.00463
                         0.00463    0.00463    0.00463    0.00463    0.00463    0.00463
                         0.00463    0.00463
                       outvars : Printing only first  50 k-points.
           xangst      0.0000000000E+00  0.0000000000E+00  0.0000000000E+00
                       0.0000000000E+00  2.5377776620E+00  2.5377840000E+00
                       1.2688888310E+00  1.2688888310E+00  1.2688920000E+00
                       1.2688888310E+00  1.2688888310E+00  3.8066760000E+00
                      -1.2688888310E+00  1.2688888310E+00  1.2688920000E+00
                      -1.2688888310E+00  1.2688888310E+00  3.8066760000E+00
            xcart      0.0000000000E+00  0.0000000000E+00  0.0000000000E+00
                       0.0000000000E+00  4.7957047674E+00  4.7957167444E+00
                       2.3978523837E+00  2.3978523837E+00  2.3978583722E+00
                       2.3978523837E+00  2.3978523837E+00  7.1935751166E+00
                      -2.3978523837E+00  2.3978523837E+00  2.3978583722E+00
                      -2.3978523837E+00  2.3978523837E+00  7.1935751166E+00
             xred      0.0000000000E+00  0.0000000000E+00  0.0000000000E+00
                       5.0000000000E-01  5.0000000000E-01  5.0000000000E-01
                       5.0000000000E-01  0.0000000000E+00  2.5000000000E-01
                       5.0000000000E-01  0.0000000000E+00  7.5000000000E-01
                       0.0000000000E+00  5.0000000000E-01  2.5000000000E-01
                       0.0000000000E+00  5.0000000000E-01  7.5000000000E-01
            znucl       72.00000    8.00000
 
================================================================================
 
 chkinp: Checking input parameters for consistency, jdtset=   1.
 
 chkinp: Checking input parameters for consistency, jdtset=   2.
 
================================================================================
== DATASET  1 ==================================================================
-   mpi_nproc: 18, omp_nthreads: -1 (-1 if OMP is not activated)
 

--- !DatasetInfo
iteration_state: {dtset: 1, }
dimensions: {natom: 6, nkpt: 216, mband: 24, nsppol: 1, nspinor: 1, nspden: 1, mpw: 2648, }
cutoff_energies: {ecut:  25.0, pawecutdg:  30.0, }
electrons: {nelect:   4.80000000E+01, charge:   0.00000000E+00, occopt:   1.00000000E+00, tsmear:   1.00000000E-02, }
meta: {optdriver: 0, ionmov: 0, optcell: 0, iscf: 7, paral_kgb: 0, }
...

 Exchange-correlation functional for the present dataset will be:
  GGA: Perdew-Burke-Ernzerhof functional - ixc=11
 Citation for XC functional:
  J.P.Perdew, K.Burke, M.Ernzerhof, PRL 77, 3865 (1996)
 
 Real(R)+Recip(G) space primitive vectors, cartesian coordinates (Bohr,Bohr^-1):
 R(1)=  4.7957048  4.7957048  0.0000000  G(1)=  0.1042600  0.1042600  0.0000000
 R(2)= -4.7957048  4.7957048  0.0000000  G(2)= -0.1042600  0.1042600  0.0000000
 R(3)=  0.0000000  0.0000000  9.5914335  G(3)=  0.0000000  0.0000000  0.1042597
 Unit cell volume ucvol=  4.4118262E+02 bohr^3
 Angles (23,13,12)=  9.00000000E+01  9.00000000E+01  9.00000000E+01 degrees
 
 getcut: wavevector=  0.0000  0.0000  0.0000  ngfft=  32  32  45
         ecut(hartree)=     25.000   => boxcut(ratio)=   2.03814
 
--- Pseudopotential description ------------------------------------------------
- pspini: atom type   1  psp file is /workspace/jiahaoz/PACKAGE_INSTALL/abinit-9.4.1/pbe_s_sr/Hf.psp8
- pspatm: opening atomic psp file    /workspace/jiahaoz/PACKAGE_INSTALL/abinit-9.4.1/pbe_s_sr/Hf.psp8
- Hf    ONCVPSP  r_core=  1.72  1.72  1.72  2.43
- 72.00000  12.00000    160625                znucl, zion, pspdat
    8   11    3    4       600   0.00000      pspcod,pspxc,lmax,lloc,mmax,r2well
    5.99000000000000    5.40000000000000    0.00000000000000   rchrg,fchrg,qchrg
     nproj     2     2     2     2
     extension_switch     1
  pspatm : epsatm=   21.98649506
         --- l  ekb(1:nproj) -->
             0    5.812335   -0.521211
             1   -3.038329    2.466565
             2    2.060039    0.471534
             3    9.947446    0.353012
 pspatm: atomic psp has been read  and splines computed
 
- pspini: atom type   2  psp file is /workspace/jiahaoz/PACKAGE_INSTALL/abinit-9.4.1/pbe_s_sr/O.psp8
- pspatm: opening atomic psp file    /workspace/jiahaoz/PACKAGE_INSTALL/abinit-9.4.1/pbe_s_sr/O.psp8
- O     ONCVPSP  r_core=  1.36  1.46  1.26
-  8.00000   6.00000    151103                znucl, zion, pspdat
    8   11    2    4       600   0.00000      pspcod,pspxc,lmax,lloc,mmax,r2well
    5.99000000000000    4.00000000000000    0.00000000000000   rchrg,fchrg,qchrg
     nproj     2     2     1
     extension_switch     1
  pspatm : epsatm=    6.19401560
         --- l  ekb(1:nproj) -->
             0    5.257212    0.704241
             1   -5.135443   -1.451781
             2   -4.371486
 pspatm: atomic psp has been read  and splines computed
 
   3.29995452E+03                                ecore*ucvol(ha*bohr**3)
--------------------------------------------------------------------------------
 
_setup2: Arith. and geom. avg. npw (full set) are    2633.208    2633.196
 
================================================================================

--- !BeginCycle
iteration_state: {dtset: 1, }
solver: {iscf: 7, nstep: 100, nline: 4, wfoptalg: 0, }
tolerances: {toldfe: 1.00E-13, }
...
 
     iter   Etot(hartree)      deltaE(h)  residm     vres2
 ETOT  1  -178.74386205955    -1.787E+02 3.906E-01 6.173E+02
 ETOT  2  -178.90780726660    -1.639E-01 3.066E-02 5.700E+02
 ETOT  3  -179.29288004956    -3.851E-01 8.831E-03 3.089E+01
 ETOT  4  -179.31030452513    -1.742E-02 3.027E-04 2.584E-02
 ETOT  5  -179.31032649202    -2.197E-05 1.747E-05 1.423E-02
 ETOT  6  -179.31033535569    -8.864E-06 1.221E-06 2.308E-04
 ETOT  7  -179.31033540805    -5.236E-08 6.380E-08 2.047E-05
 ETOT  8  -179.31033542401    -1.597E-08 5.770E-09 1.162E-06
 ETOT  9  -179.31033542456    -5.421E-10 3.185E-10 2.407E-08
 ETOT 10  -179.31033542458    -2.089E-11 2.779E-11 5.019E-10
 ETOT 11  -179.31033542458     1.108E-12 1.714E-12 1.379E-11
 ETOT 12  -179.31033542458     2.558E-13 2.049E-13 1.669E-13
 ETOT 13  -179.31033542458    -1.819E-12 1.535E-14 1.456E-14
 ETOT 14  -179.31033542458     1.421E-13 2.236E-15 1.460E-15
 ETOT 15  -179.31033542458     7.674E-13 1.697E-16 2.735E-17
 ETOT 16  -179.31033542458     3.979E-13 2.463E-17 1.361E-18
 ETOT 17  -179.31033542458    -1.137E-13 1.886E-18 2.548E-20
 ETOT 18  -179.31033542458    -8.527E-14 2.729E-19 4.458E-21
 ETOT 19  -179.31033542458     4.547E-13 2.108E-20 2.494E-23
 ETOT 20  -179.31033542458    -1.137E-13 3.039E-21 1.862E-23
 ETOT 21  -179.31033542458     2.558E-13 2.363E-22 5.853E-24
 ETOT 22  -179.31033542458     0.000E+00 3.396E-23 5.249E-24
 ETOT 23  -179.31033542458     0.000E+00 2.656E-24 4.003E-24
 
 At SCF step   23, etot is converged : 
  for the second time, diff in etot=  0.000E+00 < toldfe=  1.000E-13
 
 Cartesian components of stress tensor (hartree/bohr^3)
  sigma(1 1)= -9.07615228E-05  sigma(3 2)=  0.00000000E+00
  sigma(2 2)= -9.07615228E-05  sigma(3 1)=  0.00000000E+00
  sigma(3 3)= -9.88246850E-05  sigma(2 1)=  0.00000000E+00
 

--- !ResultsGS
iteration_state: {dtset: 1, }
comment   : Summary of ground state results
lattice_vectors:
- [  4.7957048,   4.7957048,   0.0000000, ]
- [ -4.7957048,   4.7957048,   0.0000000, ]
- [  0.0000000,   0.0000000,   9.5914335, ]
lattice_lengths: [   6.78215,    6.78215,    9.59143, ]
lattice_angles: [ 90.000,  90.000,  90.000, ] # degrees, (23, 13, 12)
lattice_volume:   4.4118262E+02
convergence: {deltae:  0.000E+00, res2:  4.003E-24, residm:  2.656E-24, diffor: null, }
etotal    :  -1.79310335E+02
entropy   :   0.00000000E+00
fermie    :   2.97185512E-01
cartesian_stress_tensor: # hartree/bohr^3
- [ -9.07615228E-05,   0.00000000E+00,   0.00000000E+00, ]
- [  0.00000000E+00,  -9.07615228E-05,   0.00000000E+00, ]
- [  0.00000000E+00,   0.00000000E+00,  -9.88246850E-05, ]
pressure_GPa:   2.7494E+00
xred      :
- [  0.0000E+00,   0.0000E+00,   0.0000E+00, Hf]
- [  5.0000E-01,   5.0000E-01,   5.0000E-01, Hf]
- [  5.0000E-01,   0.0000E+00,   2.5000E-01,  O]
- [  5.0000E-01,   0.0000E+00,   7.5000E-01,  O]
- [  0.0000E+00,   5.0000E-01,   2.5000E-01,  O]
- [  0.0000E+00,   5.0000E-01,   7.5000E-01,  O]
cartesian_forces: # hartree/bohr
- [  0.00000000E+00,   0.00000000E+00,  -5.64688632E-22, ]
- [  0.00000000E+00,   0.00000000E+00,  -5.64688632E-22, ]
- [  0.00000000E+00,   0.00000000E+00,   1.76006410E-05, ]
- [  0.00000000E+00,   0.00000000E+00,  -1.76006410E-05, ]
- [  0.00000000E+00,   0.00000000E+00,   1.76006410E-05, ]
- [  0.00000000E+00,   0.00000000E+00,  -1.76006410E-05, ]
force_length_stats: {min:   5.64688632E-22, max:   1.76006410E-05, mean:   1.17337606E-05, }
...

 Integrated electronic density in atomic spheres:
 ------------------------------------------------
 Atom  Sphere_radius  Integrated_density
    1        2.00000          8.25056452
    2        2.00000          8.27835786
    3        2.00000          6.35439086
    4        2.00000          6.35439086
    5        2.00000          6.35439086
    6        2.00000          6.35439086
================================================================================
 
 ----iterations are completed or convergence reached----
 
 Mean square residual over all n,k,spin=   88.921E-29; max=  26.557E-25
 reduced coordinates (array xred) for    6 atoms
       0.000000000000      0.000000000000      0.000000000000
       0.500000000000      0.500000000000      0.500000000000
       0.500000000000      0.000000000000      0.250000000000
       0.500000000000      0.000000000000      0.750000000000
       0.000000000000      0.500000000000      0.250000000000
       0.000000000000      0.500000000000      0.750000000000
 rms dE/dt=  7.9580E-05; max dE/dt=  1.6882E-04; dE/dt below (all hartree)
    1       0.000000000000      0.000000000000      0.000000000000
    2       0.000000000000      0.000000000000      0.000000000000
    3       0.000000000000      0.000000000000     -0.000168815377
    4       0.000000000000      0.000000000000      0.000168815377
    5       0.000000000000      0.000000000000     -0.000168815377
    6       0.000000000000      0.000000000000      0.000168815377
 
 cartesian coordinates (angstrom) at end:
    1      0.00000000000000     0.00000000000000     0.00000000000000
    2      0.00000000000000     2.53777766203200     2.53778400000000
    3      1.26888883101600     1.26888883101600     1.26889200000000
    4      1.26888883101600     1.26888883101600     3.80667600000000
    5     -1.26888883101600     1.26888883101600     1.26889200000000
    6     -1.26888883101600     1.26888883101600     3.80667600000000
 
 cartesian forces (hartree/bohr) at end:
    1      0.00000000000000     0.00000000000000    -0.00000000000000
    2      0.00000000000000     0.00000000000000    -0.00000000000000
    3      0.00000000000000     0.00000000000000     0.00001760064095
    4      0.00000000000000     0.00000000000000    -0.00001760064095
    5      0.00000000000000     0.00000000000000     0.00001760064095
    6      0.00000000000000     0.00000000000000    -0.00001760064095
 frms,max,avg= 8.2970217E-06 1.7600641E-05   0.000E+00  0.000E+00  0.000E+00 h/b
 
 cartesian forces (eV/Angstrom) at end:
    1      0.00000000000000     0.00000000000000    -0.00000000000000
    2      0.00000000000000     0.00000000000000    -0.00000000000000
    3      0.00000000000000     0.00000000000000     0.00090506127116
    4      0.00000000000000     0.00000000000000    -0.00090506127116
    5      0.00000000000000     0.00000000000000     0.00090506127116
    6      0.00000000000000     0.00000000000000    -0.00090506127116
 frms,max,avg= 4.2664997E-04 9.0506127E-04   0.000E+00  0.000E+00  0.000E+00 e/A
 length scales=  6.782151501881  6.782151501881  9.591433488838 bohr
              =  3.588960000000  3.588960000000  5.075568000000 angstroms
 prteigrs : about to open file o_DS1_EIG
 Fermi (or HOMO) energy (hartree) =   0.29719   Average Vxc (hartree)=  -0.44631
 Eigenvalues (hartree) for nkpt= 216  k points:
 kpt#   1, nband= 24, wtk=  0.00463, kpt=  0.0000  0.0000  0.0000 (reduced coord)
  -1.94954   -1.94888   -0.80773   -0.79548   -0.79548   -0.79098   -0.79098   -0.79098
  -0.39216   -0.32950   -0.31397   -0.28178    0.06071    0.10106    0.10106    0.10106
   0.17012    0.17012    0.24089    0.24089    0.27637    0.27637    0.27639    0.29719
 prteigrs : prtvol=0 or 1, do not print more k-points.
 

--- !EnergyTerms
iteration_state     : {dtset: 1, }
comment             : Components of total free energy in Hartree
kinetic             :  7.29149977039428E+01
hartree             :  2.76230537136990E+01
xc                  : -4.54114192075160E+01
Ewald energy        : -1.35511620930735E+02
psp_core            :  7.47979268710211E+00
local_psp           : -1.01866101872547E+02
non_local_psp       : -4.53903751852090E+00
total_energy        : -1.79310335424575E+02
total_energy_eV     : -4.87928236730348E+03
band_energy         : -1.54373387981691E+01
...

 
 Cartesian components of stress tensor (hartree/bohr^3)
  sigma(1 1)= -9.07615228E-05  sigma(3 2)=  0.00000000E+00
  sigma(2 2)= -9.07615228E-05  sigma(3 1)=  0.00000000E+00
  sigma(3 3)= -9.88246850E-05  sigma(2 1)=  0.00000000E+00
 
-Cartesian components of stress tensor (GPa)         [Pressure=  2.7494E+00 GPa]
- sigma(1 1)= -2.67029574E+00  sigma(3 2)=  0.00000000E+00
- sigma(2 2)= -2.67029574E+00  sigma(3 1)=  0.00000000E+00
- sigma(3 3)= -2.90752213E+00  sigma(2 1)=  0.00000000E+00
 
================================================================================
== DATASET  2 ==================================================================
-   mpi_nproc: 18, omp_nthreads: -1 (-1 if OMP is not activated)
 

--- !DatasetInfo
iteration_state: {dtset: 2, }
dimensions: {natom: 6, nkpt: 216, mband: 24, nsppol: 1, nspinor: 1, nspden: 1, mpw: 2662, }
cutoff_energies: {ecut:  25.0, pawecutdg:  30.0, }
electrons: {nelect:   4.80000000E+01, charge:   0.00000000E+00, occopt:   1.00000000E+00, tsmear:   1.00000000E-02, }
meta: {optdriver: 1, rfphon: 1, }
...

 mkfilename : getwfk/=0, take file _WFK from output of DATASET   1.
 
 Exchange-correlation functional for the present dataset will be:
  GGA: Perdew-Burke-Ernzerhof functional - ixc=11
 Citation for XC functional:
  J.P.Perdew, K.Burke, M.Ernzerhof, PRL 77, 3865 (1996)
 
 Real(R)+Recip(G) space primitive vectors, cartesian coordinates (Bohr,Bohr^-1):
 R(1)=  4.7957048  4.7957048  0.0000000  G(1)=  0.1042600  0.1042600  0.0000000
 R(2)= -4.7957048  4.7957048  0.0000000  G(2)= -0.1042600  0.1042600  0.0000000
 R(3)=  0.0000000  0.0000000  9.5914335  G(3)=  0.0000000  0.0000000  0.1042597
 Unit cell volume ucvol=  4.4118262E+02 bohr^3
 Angles (23,13,12)=  9.00000000E+01  9.00000000E+01  9.00000000E+01 degrees
 setup1 : take into account q-point for computing boxcut.
 
 getcut: wavevector=  0.5000  0.5000  0.0000  ngfft=  32  32  45
         ecut(hartree)=     25.000   => boxcut(ratio)=   2.03182
--------------------------------------------------------------------------------
 
-inwffil : will read wavefunctions from disk file o_DS1_WFK.nc
 
 ==>  initialize data related to q vector <== 
 
 The list of irreducible perturbations for this q vector is:
    1)    idir= 1    ipert=   1
    2)    idir= 3    ipert=   1
    3)    idir= 1    ipert=   2
    4)    idir= 3    ipert=   2
    5)    idir= 1    ipert=   3
    6)    idir= 2    ipert=   3
    7)    idir= 3    ipert=   3
 
================================================================================
 
 The perturbation idir=   2  ipert=   1 is
 symmetric of a previously calculated perturbation.
 So, its SCF calculation is not needed.
 
 
 The perturbation idir=   2  ipert=   2 is
 symmetric of a previously calculated perturbation.
 So, its SCF calculation is not needed.
 
 
 The perturbation idir=   1  ipert=   4 is
 symmetric of a previously calculated perturbation.
 So, its SCF calculation is not needed.
 
 
 The perturbation idir=   2  ipert=   4 is
 symmetric of a previously calculated perturbation.
 So, its SCF calculation is not needed.
 
 
 The perturbation idir=   3  ipert=   4 is
 symmetric of a previously calculated perturbation.
 So, its SCF calculation is not needed.
 
 
 The perturbation idir=   1  ipert=   5 is
 symmetric of a previously calculated perturbation.
 So, its SCF calculation is not needed.
 
 
 The perturbation idir=   2  ipert=   5 is
 symmetric of a previously calculated perturbation.
 So, its SCF calculation is not needed.
 
 
 The perturbation idir=   3  ipert=   5 is
 symmetric of a previously calculated perturbation.
 So, its SCF calculation is not needed.
 
 
 The perturbation idir=   1  ipert=   6 is
 symmetric of a previously calculated perturbation.
 So, its SCF calculation is not needed.
 
 
 The perturbation idir=   2  ipert=   6 is
 symmetric of a previously calculated perturbation.
 So, its SCF calculation is not needed.
 
 
 The perturbation idir=   3  ipert=   6 is
 symmetric of a previously calculated perturbation.
 So, its SCF calculation is not needed.
 
 
--------------------------------------------------------------------------------
 Perturbation wavevector (in red.coord.)   0.500000  0.500000  0.000000
 Perturbation : displacement of atom   1   along direction   1
 Found     2 symmetries that leave the perturbation invariant.
 symkpt : the number of k-points, thanks to the symmetries,
 is reduced to   144 .
 
--------------------------------------------------------------------------------
 
-inwffil : will read wavefunctions from disk file o_DS1_WFK.nc
--------------------------------------------------------------------------------
 
-inwffil : will read wavefunctions from disk file o_DS1_WFK.nc
 Initialisation of the first-order wave-functions :
  ireadwf=   0

--- !BeginCycle
iteration_state: {dtset: 2, }
solver: {iscf: 7, nstep: 100, nline: 4, wfoptalg: 0, }
tolerances: {tolvrs: 1.00E-13, }
...
 
     iter   2DEtotal(Ha)        deltaE(Ha) residm    vres2
-ETOT  1   14.240781704049     -1.749E+03 6.476E+00 1.032E+04
 ETOT  2   11.351999918877     -2.889E+00 2.294E-02 2.576E+02
 ETOT  3   11.649217811724      2.972E-01 4.413E-03 1.450E+03
 ETOT  4   10.932827681960     -7.164E-01 1.159E-03 2.338E+01
 ETOT  5   10.925573209758     -7.254E-03 1.261E-04 2.479E-01
 ETOT  6   10.925481013716     -9.220E-05 9.396E-07 1.006E-02
 ETOT  7   10.925474173484     -6.840E-06 1.344E-07 2.266E-04
 ETOT  8   10.925474094575     -7.891E-08 3.872E-09 1.307E-05
 ETOT  9   10.925474089552     -5.023E-09 5.866E-10 3.163E-06
 ETOT 10   10.925474087826     -1.725E-09 2.062E-11 6.685E-07
 ETOT 11   10.925474087351     -4.754E-10 3.751E-12 2.530E-09
 ETOT 12   10.925474087347     -4.320E-12 1.462E-13 6.958E-10
 ETOT 13   10.925474087343     -3.411E-12 2.140E-14 9.729E-11
 ETOT 14   10.925474087344      1.137E-12 5.995E-16 1.517E-11
 ETOT 15   10.925474087346      1.592E-12 1.279E-16 7.729E-13
 ETOT 16   10.925474087348      1.592E-12 5.070E-18 6.030E-14
 
 At SCF step   16       vres2   =  6.03E-14 < tolvrs=  1.00E-13 =>converged.
================================================================================
 
 ----iterations are completed or convergence reached----
 
 Mean square residual over all n,k,spin=   18.806E-20; max=  50.697E-19
 
 Thirteen components of 2nd-order total energy (hartree) are
 1,2,3: 0th-order hamiltonian combined with 1st-order wavefunctions
     kin0=   1.75032334E+03 eigvalue=   3.68397356E+02  local=  -1.30300773E+03
 4,5,6: 1st-order hamiltonian combined with 1st and 0th-order wfs
 loc psp =  -2.52929130E+03  Hartree=   6.55055040E+02     xc=  -1.19852807E+02
 note that "loc psp" includes a xc core correction that could be resolved
 7,8,9: eventually, occupation + non-local contributions
    edocc=   0.00000000E+00     enl0=   4.01053783E+02   enl1=  -9.74646673E+02
 1-9 gives the relaxation energy (to be shifted if some occ is /=2.0)
   erelax=  -1.75196898E+03
 10,11,12 Non-relaxation  contributions : frozen-wavefunctions and Ewald
 fr.local=   9.33611571E+02 fr.nonlo=   4.91939718E+02  Ewald=   2.84084507E+02
 13,14 Frozen wf xc core corrections (1) and (2)
 frxc 1  =  -2.04770523E+02  frxc 2 =   2.58029185E+02
 Resulting in :
 2DEtotal=    0.1092547409E+02 Ha. Also 2DEtotal=    0.297297269243E+03 eV
    (2DErelax=   -1.7519689846E+03 Ha. 2DEnonrelax=    1.7628944587E+03 Ha)
    (  non-var. 2DEtotal :    1.0925474097E+01 Ha)
 
 
--------------------------------------------------------------------------------
 Perturbation wavevector (in red.coord.)   0.500000  0.500000  0.000000
 Perturbation : displacement of atom   1   along direction   3
 Found     2 symmetries that leave the perturbation invariant.
 symkpt : the number of k-points, thanks to the symmetries,
 is reduced to   126 .
 
--------------------------------------------------------------------------------
 
-inwffil : will read wavefunctions from disk file o_DS1_WFK.nc
--------------------------------------------------------------------------------
 
-inwffil : will read wavefunctions from disk file o_DS1_WFK.nc
 Initialisation of the first-order wave-functions :
  ireadwf=   0

--- !BeginCycle
iteration_state: {dtset: 2, }
solver: {iscf: 7, nstep: 100, nline: 4, wfoptalg: 0, }
tolerances: {tolvrs: 1.00E-13, }
...
 
     iter   2DEtotal(Ha)        deltaE(Ha) residm    vres2
-ETOT  1   7.1019438516059     -3.324E+03 1.261E+01 6.588E+02
 ETOT  2   4.7458265485693     -2.356E+00 2.967E-02 5.039E+01
 ETOT  3   4.7187537211325     -2.707E-02 1.169E-03 4.028E+00
 ETOT  4   4.7164427242210     -2.311E-03 3.455E-05 1.243E-01
 ETOT  5   4.7163847636489     -5.796E-05 1.453E-06 3.292E-03
 ETOT  6   4.7163830589202     -1.705E-06 8.264E-08 4.244E-05
 ETOT  7   4.7163830187201     -4.020E-08 2.630E-09 9.029E-07
 ETOT  8   4.7163830171398     -1.580E-09 1.924E-10 2.852E-08
 ETOT  9   4.7163830170734     -6.639E-11 6.602E-12 3.058E-10
 ETOT 10   4.7163830170866      1.319E-11 4.685E-13 2.670E-11
 ETOT 11   4.7163830170716     -1.501E-11 2.623E-14 3.561E-11
 ETOT 12   4.7163830170703     -1.364E-12 1.823E-15 5.666E-14
 
 At SCF step   12       vres2   =  5.67E-14 < tolvrs=  1.00E-13 =>converged.
================================================================================
 
 ----iterations are completed or convergence reached----
 
 Mean square residual over all n,k,spin=   18.205E-18; max=  18.226E-16
 
 Thirteen components of 2nd-order total energy (hartree) are
 1,2,3: 0th-order hamiltonian combined with 1st-order wavefunctions
     kin0=   3.41056130E+03 eigvalue=   7.20229837E+02  local=  -2.53172431E+03
 4,5,6: 1st-order hamiltonian combined with 1st and 0th-order wfs
 loc psp =  -4.70595490E+03  Hartree=   1.17410832E+03     xc=  -2.36774830E+02
 note that "loc psp" includes a xc core correction that could be resolved
 7,8,9: eventually, occupation + non-local contributions
    edocc=   0.00000000E+00     enl0=   7.89496491E+02   enl1=  -1.94583870E+03
 1-9 gives the relaxation energy (to be shifted if some occ is /=2.0)
   erelax=  -3.32589680E+03
 10,11,12 Non-relaxation  contributions : frozen-wavefunctions and Ewald
 fr.local=   1.86723467E+03 fr.nonlo=   9.83885431E+02  Ewald=   3.72975135E+02
 13,14 Frozen wf xc core corrections (1) and (2)
 frxc 1  =  -4.09542992E+02  frxc 2 =   5.16060939E+02
 Resulting in :
 2DEtotal=    0.4716383017E+01 Ha. Also 2DEtotal=    0.128339308708E+03 eV
    (2DErelax=   -3.3258968009E+03 Ha. 2DEnonrelax=    3.3306131839E+03 Ha)
    (  non-var. 2DEtotal :    4.7163829883E+00 Ha)
 
 
--------------------------------------------------------------------------------
 Perturbation wavevector (in red.coord.)   0.500000  0.500000  0.000000
 Perturbation : displacement of atom   2   along direction   1
 Found     2 symmetries that leave the perturbation invariant.
 symkpt : the number of k-points, thanks to the symmetries,
 is reduced to   144 .
 
--------------------------------------------------------------------------------
 
-inwffil : will read wavefunctions from disk file o_DS1_WFK.nc
--------------------------------------------------------------------------------
 
-inwffil : will read wavefunctions from disk file o_DS1_WFK.nc
 Initialisation of the first-order wave-functions :
  ireadwf=   0

--- !BeginCycle
iteration_state: {dtset: 2, }
solver: {iscf: 7, nstep: 100, nline: 4, wfoptalg: 0, }
tolerances: {tolvrs: 1.00E-13, }
...
 
     iter   2DEtotal(Ha)        deltaE(Ha) residm    vres2
-ETOT  1   14.239145663033     -1.749E+03 6.347E+00 1.032E+04
 ETOT  2   11.350934983880     -2.888E+00 2.366E-02 2.565E+02
 ETOT  3   11.648681856322      2.977E-01 4.404E-03 1.448E+03
 ETOT  4   10.933463973310     -7.152E-01 1.157E-03 2.331E+01
 ETOT  5   10.926234644415     -7.229E-03 1.258E-04 2.486E-01
 ETOT  6   10.926142425893     -9.222E-05 9.363E-07 9.951E-03
 ETOT  7   10.926135604617     -6.821E-06 1.342E-07 2.255E-04
 ETOT  8   10.926135525362     -7.926E-08 3.876E-09 1.216E-05
 ETOT  9   10.926135520004     -5.358E-09 5.825E-10 1.597E-06
 ETOT 10   10.926135519394     -6.098E-10 1.910E-11 7.430E-07
 ETOT 11   10.926135518868     -5.264E-10 3.635E-12 3.307E-09
 ETOT 12   10.926135518863     -4.547E-12 1.327E-13 7.717E-10
 ETOT 13   10.926135518860     -3.638E-12 2.052E-14 1.158E-10
 ETOT 14   10.926135518865      5.230E-12 5.803E-16 5.639E-12
 ETOT 15   10.926135518866      1.137E-12 1.315E-16 2.167E-12
 ETOT 16   10.926135518862     -3.638E-12 3.955E-18 2.866E-14
 
 At SCF step   16       vres2   =  2.87E-14 < tolvrs=  1.00E-13 =>converged.
================================================================================
 
 ----iterations are completed or convergence reached----
 
 Mean square residual over all n,k,spin=   42.538E-20; max=  39.549E-19
 
 Thirteen components of 2nd-order total energy (hartree) are
 1,2,3: 0th-order hamiltonian combined with 1st-order wavefunctions
     kin0=   1.75032250E+03 eigvalue=   3.68395204E+02  local=  -1.30300511E+03
 4,5,6: 1st-order hamiltonian combined with 1st and 0th-order wfs
 loc psp =  -2.52929011E+03  Hartree=   6.55054226E+02     xc=  -1.19852088E+02
 note that "loc psp" includes a xc core correction that could be resolved
 7,8,9: eventually, occupation + non-local contributions
    edocc=   0.00000000E+00     enl0=   4.01053539E+02   enl1=  -9.74646424E+02
 1-9 gives the relaxation energy (to be shifted if some occ is /=2.0)
   erelax=  -1.75196827E+03
 10,11,12 Non-relaxation  contributions : frozen-wavefunctions and Ewald
 fr.local=   9.33611449E+02 fr.nonlo=   4.91939793E+02  Ewald=   2.84084507E+02
 13,14 Frozen wf xc core corrections (1) and (2)
 frxc 1  =  -2.04770539E+02  frxc 2 =   2.58029195E+02
 Resulting in :
 2DEtotal=    0.1092613552E+02 Ha. Also 2DEtotal=    0.297315267710E+03 eV
    (2DErelax=   -1.7519682694E+03 Ha. 2DEnonrelax=    1.7628944050E+03 Ha)
    (  non-var. 2DEtotal :    1.0926135537E+01 Ha)
 
 
--------------------------------------------------------------------------------
 Perturbation wavevector (in red.coord.)   0.500000  0.500000  0.000000
 Perturbation : displacement of atom   2   along direction   3
 Found     2 symmetries that leave the perturbation invariant.
 symkpt : the number of k-points, thanks to the symmetries,
 is reduced to   126 .
 
--------------------------------------------------------------------------------
 
-inwffil : will read wavefunctions from disk file o_DS1_WFK.nc
--------------------------------------------------------------------------------
 
-inwffil : will read wavefunctions from disk file o_DS1_WFK.nc
 Initialisation of the first-order wave-functions :
  ireadwf=   0

--- !BeginCycle
iteration_state: {dtset: 2, }
solver: {iscf: 7, nstep: 100, nline: 4, wfoptalg: 0, }
tolerances: {tolvrs: 1.00E-13, }
...
 
     iter   2DEtotal(Ha)        deltaE(Ha) residm    vres2
-ETOT  1   7.1067155916876     -3.324E+03 1.261E+01 6.625E+02
 ETOT  2   4.7463812188666     -2.360E+00 2.814E-02 5.031E+01
 ETOT  3   4.7191411505205     -2.724E-02 1.341E-03 4.074E+00
 ETOT  4   4.7168144093266     -2.327E-03 3.587E-05 1.245E-01
 ETOT  5   4.7167558731589     -5.854E-05 1.824E-06 3.325E-03
 ETOT  6   4.7167541438967     -1.729E-06 8.233E-08 4.172E-05
 ETOT  7   4.7167541027720     -4.112E-08 3.463E-09 7.340E-07
 ETOT  8   4.7167541012036     -1.568E-09 1.908E-10 2.166E-08
 ETOT  9   4.7167541011304     -7.321E-11 8.986E-12 3.194E-10
 ETOT 10   4.7167541011254     -5.002E-12 5.727E-13 1.060E-11
 ETOT 11   4.7167541011195     -5.912E-12 4.599E-14 8.927E-12
 ETOT 12   4.7167541011331      1.364E-11 3.249E-15 2.630E-13
 ETOT 13   4.7167541011395      6.366E-12 2.404E-16 1.516E-15
 
 At SCF step   13       vres2   =  1.52E-15 < tolvrs=  1.00E-13 =>converged.
================================================================================
 
 ----iterations are completed or convergence reached----
 
 Mean square residual over all n,k,spin=   68.640E-20; max=  24.045E-17
 
 Thirteen components of 2nd-order total energy (hartree) are
 1,2,3: 0th-order hamiltonian combined with 1st-order wavefunctions
     kin0=   3.41056781E+03 eigvalue=   7.20226973E+02  local=  -2.53172656E+03
 4,5,6: 1st-order hamiltonian combined with 1st and 0th-order wfs
 loc psp =  -4.70595695E+03  Hartree=   1.17410977E+03     xc=  -2.36776207E+02
 note that "loc psp" includes a xc core correction that could be resolved
 7,8,9: eventually, occupation + non-local contributions
    edocc=   0.00000000E+00     enl0=   7.89496779E+02   enl1=  -1.94584018E+03
 1-9 gives the relaxation energy (to be shifted if some occ is /=2.0)
   erelax=  -3.32589857E+03
 10,11,12 Non-relaxation  contributions : frozen-wavefunctions and Ewald
 fr.local=   1.86723634E+03 fr.nonlo=   9.83885888E+02  Ewald=   3.72975135E+02
 13,14 Frozen wf xc core corrections (1) and (2)
 frxc 1  =  -4.09542990E+02  frxc 2 =   5.16060947E+02
 Resulting in :
 2DEtotal=    0.4716754101E+01 Ha. Also 2DEtotal=    0.128349406419E+03 eV
    (2DErelax=   -3.3258985667E+03 Ha. 2DEnonrelax=    3.3306153208E+03 Ha)
    (  non-var. 2DEtotal :    4.7167541145E+00 Ha)
 
 
--------------------------------------------------------------------------------
 Perturbation wavevector (in red.coord.)   0.500000  0.500000  0.000000
 Perturbation : displacement of atom   3   along direction   1
 The set of symmetries contains only one element for this perturbation.
 symkpt : not enough symmetry to change the number of k points.
 
--------------------------------------------------------------------------------
 
-inwffil : will read wavefunctions from disk file o_DS1_WFK.nc
--------------------------------------------------------------------------------
 
-inwffil : will read wavefunctions from disk file o_DS1_WFK.nc
 Initialisation of the first-order wave-functions :
  ireadwf=   0

--- !BeginCycle
iteration_state: {dtset: 2, }
solver: {iscf: 7, nstep: 100, nline: 4, wfoptalg: 0, }
tolerances: {tolvrs: 1.00E-13, }
...
 
     iter   2DEtotal(Ha)        deltaE(Ha) residm    vres2
-ETOT  1   9.9364443874902     -2.542E+03 1.994E+00 7.746E+03
 ETOT  2   4.8311368017639     -5.105E+00 3.978E-01 7.324E+02
 ETOT  3   4.5658337118380     -2.653E-01 7.233E-03 2.148E+01
 ETOT  4   4.5543255215957     -1.151E-02 1.085E-03 2.744E+00
 ETOT  5   4.5537388548223     -5.867E-04 5.892E-05 3.357E-01
 ETOT  6   4.5536817003776     -5.715E-05 8.320E-06 2.026E-02
 ETOT  7   4.5536763045743     -5.396E-06 7.813E-07 1.098E-02
 ETOT  8   4.5536675867170     -8.718E-06 1.002E-07 4.877E-05
 ETOT  9   4.5536675449580     -4.176E-08 1.018E-08 2.686E-06
 ETOT 10   4.5536675448525     -1.055E-10 9.523E-10 1.773E-06
 ETOT 11   4.5536675439557     -8.968E-10 1.107E-10 6.271E-07
 ETOT 12   4.5536675435742     -3.815E-10 1.392E-11 4.023E-09
 ETOT 13   4.5536675435674     -6.821E-12 1.439E-12 6.220E-10
 ETOT 14   4.5536675435715      4.093E-12 1.509E-13 1.299E-11
 ETOT 15   4.5536675435715      0.000E+00 1.788E-14 1.294E-12
 ETOT 16   4.5536675435742      2.728E-12 1.658E-15 2.422E-13
 ETOT 17   4.5536675435737     -4.547E-13 2.033E-16 9.382E-14
 
 At SCF step   17       vres2   =  9.38E-14 < tolvrs=  1.00E-13 =>converged.
================================================================================
 
 ----iterations are completed or convergence reached----
 
 Mean square residual over all n,k,spin=   16.220E-20; max=  20.335E-17
 
 Thirteen components of 2nd-order total energy (hartree) are
 1,2,3: 0th-order hamiltonian combined with 1st-order wavefunctions
     kin0=   2.97133661E+03 eigvalue=  -1.08725076E+02  local=  -1.01083088E+03
 4,5,6: 1st-order hamiltonian combined with 1st and 0th-order wfs
 loc psp =  -1.65827535E+03  Hartree=   4.89668660E+02     xc=  -1.16478239E+02
 note that "loc psp" includes a xc core correction that could be resolved
 7,8,9: eventually, occupation + non-local contributions
    edocc=   0.00000000E+00     enl0=   3.22171864E+02   enl1=  -3.43601053E+03
 1-9 gives the relaxation energy (to be shifted if some occ is /=2.0)
   erelax=  -2.54714294E+03
 10,11,12 Non-relaxation  contributions : frozen-wavefunctions and Ewald
 fr.local=   7.19915933E+02 fr.nonlo=   1.72317599E+03  Ewald=   1.33909218E+02
 13,14 Frozen wf xc core corrections (1) and (2)
 frxc 1  =  -1.07238433E+02  frxc 2 =   8.19338965E+01
 Resulting in :
 2DEtotal=    0.4553667544E+01 Ha. Also 2DEtotal=    0.123911595499E+03 eV
    (2DErelax=   -2.5471429380E+03 Ha. 2DEnonrelax=    2.5516966056E+03 Ha)
    (  non-var. 2DEtotal :    4.5536675324E+00 Ha)
 
 
--------------------------------------------------------------------------------
 Perturbation wavevector (in red.coord.)   0.500000  0.500000  0.000000
 Perturbation : displacement of atom   3   along direction   2
 The set of symmetries contains only one element for this perturbation.
 symkpt : not enough symmetry to change the number of k points.
 
--------------------------------------------------------------------------------
 
-inwffil : will read wavefunctions from disk file o_DS1_WFK.nc
--------------------------------------------------------------------------------
 
-inwffil : will read wavefunctions from disk file o_DS1_WFK.nc
 Initialisation of the first-order wave-functions :
  ireadwf=   0

--- !BeginCycle
iteration_state: {dtset: 2, }
solver: {iscf: 7, nstep: 100, nline: 4, wfoptalg: 0, }
tolerances: {tolvrs: 1.00E-13, }
...
 
     iter   2DEtotal(Ha)        deltaE(Ha) residm    vres2
-ETOT  1   9.9462236035115     -2.542E+03 1.940E+00 7.753E+03
 ETOT  2   4.8291976528362     -5.117E+00 3.503E-01 7.300E+02
 ETOT  3   4.5637423601129     -2.655E-01 6.435E-03 2.143E+01
 ETOT  4   4.5522154700016     -1.153E-02 6.742E-04 2.738E+00
 ETOT  5   4.5516266487034     -5.888E-04 4.065E-05 3.336E-01
 ETOT  6   4.5515698257591     -5.682E-05 3.963E-06 2.028E-02
 ETOT  7   4.5515643874869     -5.438E-06 4.993E-07 1.096E-02
 ETOT  8   4.5515556907053     -8.697E-06 4.486E-08 4.830E-05
 ETOT  9   4.5515556494552     -4.125E-08 5.204E-09 2.675E-06
 ETOT 10   4.5515556493938     -6.139E-11 3.207E-10 1.782E-06
 ETOT 11   4.5515556484975     -8.963E-10 4.562E-11 6.347E-07
 ETOT 12   4.5515556481064     -3.911E-10 4.976E-12 4.033E-09
 ETOT 13   4.5515556481068      4.547E-13 5.611E-13 6.332E-10
 ETOT 14   4.5515556481055     -1.364E-12 4.084E-14 1.311E-11
 ETOT 15   4.5515556481091      3.638E-12 6.135E-15 1.302E-12
 ETOT 16   4.5515556481014     -7.731E-12 3.452E-16 2.583E-13
 ETOT 17   4.5515556481073      5.912E-12 5.504E-17 8.728E-14
 
 At SCF step   17       vres2   =  8.73E-14 < tolvrs=  1.00E-13 =>converged.
================================================================================
 
 ----iterations are completed or convergence reached----
 
 Mean square residual over all n,k,spin=   14.060E-20; max=  55.043E-18
 
 Thirteen components of 2nd-order total energy (hartree) are
 1,2,3: 0th-order hamiltonian combined with 1st-order wavefunctions
     kin0=   2.97133577E+03 eigvalue=  -1.08724452E+02  local=  -1.01083220E+03
 4,5,6: 1st-order hamiltonian combined with 1st and 0th-order wfs
 loc psp =  -1.65827462E+03  Hartree=   4.89668720E+02     xc=  -1.16477922E+02
 note that "loc psp" includes a xc core correction that could be resolved
 7,8,9: eventually, occupation + non-local contributions
    edocc=   0.00000000E+00     enl0=   3.22172942E+02   enl1=  -3.43601110E+03
 1-9 gives the relaxation energy (to be shifted if some occ is /=2.0)
   erelax=  -2.54714286E+03
 10,11,12 Non-relaxation  contributions : frozen-wavefunctions and Ewald
 fr.local=   7.19915820E+02 fr.nonlo=   1.72317674E+03  Ewald=   1.33909218E+02
 13,14 Frozen wf xc core corrections (1) and (2)
 frxc 1  =  -1.07240576E+02  frxc 2 =   8.19332109E+01
 Resulting in :
 2DEtotal=    0.4551555648E+01 Ha. Also 2DEtotal=    0.123854127901E+03 eV
    (2DErelax=   -2.5471428624E+03 Ha. 2DEnonrelax=    2.5516944180E+03 Ha)
    (  non-var. 2DEtotal :    4.5515556359E+00 Ha)
 
 
--------------------------------------------------------------------------------
 Perturbation wavevector (in red.coord.)   0.500000  0.500000  0.000000
 Perturbation : displacement of atom   3   along direction   3
 The set of symmetries contains only one element for this perturbation.
 symkpt : not enough symmetry to change the number of k points.
 
--------------------------------------------------------------------------------
 
-inwffil : will read wavefunctions from disk file o_DS1_WFK.nc
--------------------------------------------------------------------------------
 
-inwffil : will read wavefunctions from disk file o_DS1_WFK.nc
 Initialisation of the first-order wave-functions :
  ireadwf=   0

--- !BeginCycle
iteration_state: {dtset: 2, }
solver: {iscf: 7, nstep: 100, nline: 4, wfoptalg: 0, }
tolerances: {tolvrs: 1.00E-13, }
...
 
     iter   2DEtotal(Ha)        deltaE(Ha) residm    vres2
-ETOT  1   19.852688133357     -5.037E+03 4.360E+00 7.620E+03
 ETOT  2   10.742830535080     -9.110E+00 4.179E-01 1.881E+02
 ETOT  3   10.516456635320     -2.264E-01 5.701E-03 1.844E+01
 ETOT  4   10.503415949735     -1.304E-02 2.579E-04 4.225E-01
 ETOT  5   10.503110298678     -3.057E-04 1.470E-05 2.056E-01
 ETOT  6   10.503023800886     -8.650E-05 1.537E-06 9.057E-02
 ETOT  7   10.502954053985     -6.975E-05 1.585E-07 2.045E-04
 ETOT  8   10.502953806570     -2.474E-07 1.686E-08 2.443E-05
 ETOT  9   10.502953806078     -4.920E-10 6.410E-10 1.973E-05
 ETOT 10   10.502953793744     -1.233E-08 6.789E-11 5.911E-06
 ETOT 11   10.502953790596     -3.149E-09 1.178E-11 3.989E-08
 ETOT 12   10.502953790577     -1.910E-11 5.664E-13 9.591E-09
 ETOT 13   10.502953790578      1.819E-12 2.436E-14 8.393E-11
 ETOT 14   10.502953790567     -1.182E-11 3.433E-15 1.513E-11
 ETOT 15   10.502953790568      1.819E-12 1.146E-16 1.372E-12
 ETOT 16   10.502953790575      6.366E-12 1.925E-17 2.552E-13
 ETOT 17   10.502953790558     -1.728E-11 1.547E-18 9.405E-15
 
 At SCF step   17       vres2   =  9.41E-15 < tolvrs=  1.00E-13 =>converged.
================================================================================
 
 ----iterations are completed or convergence reached----
 
 Mean square residual over all n,k,spin=   67.798E-21; max=  15.469E-19
 
 Thirteen components of 2nd-order total energy (hartree) are
 1,2,3: 0th-order hamiltonian combined with 1st-order wavefunctions
     kin0=   5.94792665E+03 eigvalue=  -2.17236657E+02  local=  -2.02542654E+03
 4,5,6: 1st-order hamiltonian combined with 1st and 0th-order wfs
 loc psp =  -3.21726251E+03  Hartree=   9.28423553E+02     xc=  -2.33449465E+02
 note that "loc psp" includes a xc core correction that could be resolved
 7,8,9: eventually, occupation + non-local contributions
    edocc=   0.00000000E+00     enl0=   6.46014411E+02   enl1=  -6.87524139E+03
 1-9 gives the relaxation energy (to be shifted if some occ is /=2.0)
   erelax=  -5.04625195E+03
 10,11,12 Non-relaxation  contributions : frozen-wavefunctions and Ewald
 fr.local=   1.43983977E+03 fr.nonlo=   3.44605349E+03  Ewald=   2.19019872E+02
 13,14 Frozen wf xc core corrections (1) and (2)
 frxc 1  =  -2.12139450E+02  frxc 2 =   1.63981220E+02
 Resulting in :
 2DEtotal=    0.1050295379E+02 Ha. Also 2DEtotal=    0.285799907259E+03 eV
    (2DErelax=   -5.0462519515E+03 Ha. 2DEnonrelax=    5.0567549053E+03 Ha)
    (  non-var. 2DEtotal :    1.0502953783E+01 Ha)
 
================================================================================
 
 ---- first-order wavefunction calculations are completed ----
 
 
 ==> Compute Derivative Database <==
  
  2nd-order matrix (non-cartesian coordinates, masses not included,
   asr not included )
     j1       j2             matrix element
  dir pert dir pert     real part     imaginary part
  
   1    1   1    1        10.9254740968         0.0000000000
   1    1   2    1         0.0000000000         0.0000000000
   1    1   3    1        -0.0000000000         0.0000000000
   1    1   1    2        -0.0000000000         0.0000000000
   1    1   2    2        -8.5681510767         0.0000000004
   1    1   3    2        -0.0000000000         0.0000000000
   1    1   1    3         0.0000000000         0.0000000000
   1    1   2    3         0.0000000000         0.0000000000
   1    1   3    3         0.0232551516         0.0000000006
   1    1   1    4        -0.0000000000         0.0000000000
   1    1   2    4         0.0000000000         0.0000000000
   1    1   3    4        -0.0232551516        -0.0000000006
   1    1   1    5        -0.0000000000         0.0000000000
   1    1   2    5        -0.0000000000        -0.0000000000
   1    1   3    5        -0.0000000000         0.0000000000
   1    1   1    6        -0.0000000000        -0.0000000000
   1    1   2    6         0.0000000000        -0.0000000000
   1    1   3    6         0.0000000000         0.0000000000
  
   2    1   1    1         0.0000000000         0.0000000000
   2    1   2    1        10.9254740968         0.0000000000
   2    1   3    1        -0.0000000000         0.0000000000
   2    1   1    2        -8.5681510767         0.0000000004
   2    1   2    2         0.0000000000         0.0000000000
   2    1   3    2        -0.0000000000         0.0000000000
   2    1   1    3         0.0000000000         0.0000000000
   2    1   2    3        -0.0000000000        -0.0000000000
   2    1   3    3         0.0000000000         0.0000000000
   2    1   1    4         0.0000000000         0.0000000000
   2    1   2    4        -0.0000000000        -0.0000000000
   2    1   3    4        -0.0000000000         0.0000000000
   2    1   1    5        -0.0000000000        -0.0000000000
   2    1   2    5         0.0000000000         0.0000000000
   2    1   3    5         0.0232551516         0.0000000006
   2    1   1    6         0.0000000000        -0.0000000000
   2    1   2    6        -0.0000000000         0.0000000000
   2    1   3    6        -0.0232551516        -0.0000000006
  
   3    1   1    1        -0.0000000000         0.0000000000
   3    1   2    1        -0.0000000000         0.0000000000
   3    1   3    1         4.7163829884         0.0000000000
   3    1   1    2        -0.0000000000         0.0000000000
   3    1   2    2        -0.0000000000         0.0000000000
   3    1   3    2        -0.0000000000         0.0000000000
   3    1   1    3         0.0310532209        -0.0000000000
   3    1   2    3         0.0000000000         0.0000000000
   3    1   3    3         0.0000000000         0.0000000000
   3    1   1    4        -0.0310532209         0.0000000000
   3    1   2    4        -0.0000000000         0.0000000000
   3    1   3    4         0.0000000000         0.0000000000
   3    1   1    5        -0.0000000000         0.0000000000
   3    1   2    5         0.0310532209        -0.0000000000
   3    1   3    5         0.0000000000         0.0000000000
   3    1   1    6         0.0000000000         0.0000000000
   3    1   2    6        -0.0310532209         0.0000000000
   3    1   3    6         0.0000000000         0.0000000000
  
   1    2   1    1        -0.0000000000         0.0000000000
   1    2   2    1        -8.5681510767        -0.0000000004
   1    2   3    1        -0.0000000000         0.0000000000
   1    2   1    2        10.9261355369         0.0000000000
   1    2   2    2         0.0000000000         0.0000000000
   1    2   3    2         0.0000000000         0.0000000000
   1    2   1    3        -0.0000000000        -0.0000000000
   1    2   2    3         0.0000000000         0.0000000000
   1    2   3    3         0.0000000000        -0.0000000000
   1    2   1    4        -0.0000000000         0.0000000000
   1    2   2    4         0.0000000000        -0.0000000000
   1    2   3    4        -0.0000000000        -0.0000000000
   1    2   1    5         0.0000000000        -0.0000000000
   1    2   2    5         0.0000000000        -0.0000000000
   1    2   3    5         0.0248318165        -0.0000000004
   1    2   1    6         0.0000000000        -0.0000000000
   1    2   2    6         0.0000000000        -0.0000000000
   1    2   3    6        -0.0248318165         0.0000000004
  
   2    2   1    1        -8.5681510767        -0.0000000004
   2    2   2    1         0.0000000000         0.0000000000
   2    2   3    1        -0.0000000000         0.0000000000
   2    2   1    2         0.0000000000         0.0000000000
   2    2   2    2        10.9261355369         0.0000000000
   2    2   3    2        -0.0000000000         0.0000000000
   2    2   1    3         0.0000000000         0.0000000000
   2    2   2    3         0.0000000000        -0.0000000000
   2    2   3    3         0.0248318165        -0.0000000004
   2    2   1    4         0.0000000000        -0.0000000000
   2    2   2    4         0.0000000000        -0.0000000000
   2    2   3    4        -0.0248318165         0.0000000004
   2    2   1    5         0.0000000000        -0.0000000000
   2    2   2    5        -0.0000000000         0.0000000000
   2    2   3    5         0.0000000000        -0.0000000000
   2    2   1    6         0.0000000000        -0.0000000000
   2    2   2    6        -0.0000000000         0.0000000000
   2    2   3    6        -0.0000000000        -0.0000000000
  
   3    2   1    1        -0.0000000000         0.0000000000
   3    2   2    1        -0.0000000000         0.0000000000
   3    2   3    1        -0.0000000000         0.0000000000
   3    2   1    2         0.0000000000         0.0000000000
   3    2   2    2        -0.0000000000         0.0000000000
   3    2   3    2         4.7167541145         0.0000000000
   3    2   1    3         0.0000000000        -0.0000000000
   3    2   2    3         0.0307934632         0.0000000000
   3    2   3    3         0.0000000000        -0.0000000000
   3    2   1    4        -0.0000000000        -0.0000000000
   3    2   2    4        -0.0307934632        -0.0000000000
   3    2   3    4         0.0000000000        -0.0000000000
   3    2   1    5         0.0307934632         0.0000000000
   3    2   2    5         0.0000000000        -0.0000000000
   3    2   3    5         0.0000000000        -0.0000000000
   3    2   1    6        -0.0307934632        -0.0000000000
   3    2   2    6        -0.0000000000        -0.0000000000
   3    2   3    6         0.0000000000        -0.0000000000
  
   1    3   1    1         0.0000000000        -0.0000000000
   1    3   2    1         0.0000000000        -0.0000000000
   1    3   3    1         0.0310532378        -0.0000000000
   1    3   1    2        -0.0000000000         0.0000000000
   1    3   2    2         0.0000000000        -0.0000000000
   1    3   3    2         0.0000000000         0.0000000000
   1    3   1    3         4.5536675324         0.0000000000
   1    3   2    3        -0.0000000000         0.0000000000
   1    3   3    3        -0.0000000000         0.0000000000
   1    3   1    4         2.0861549899         0.0000000000
   1    3   2    4        -0.0000000000         0.0000000000
   1    3   3    4        -0.0000000000         0.0000000000
   1    3   1    5        -0.0000000000         0.0000000000
   1    3   2    5         5.4080576704         0.0000000000
   1    3   3    5        -0.0000000000         0.0000000000
   1    3   1    6        -0.0000000000         0.0000000000
   1    3   2    6         0.1592287676         0.0000000000
   1    3   3    6         0.0000000000         0.0000000000
  
   2    3   1    1         0.0000000000        -0.0000000000
   2    3   2    1        -0.0000000000         0.0000000000
   2    3   3    1         0.0000000000        -0.0000000000
   2    3   1    2         0.0000000000        -0.0000000000
   2    3   2    2         0.0000000000         0.0000000000
   2    3   3    2         0.0307934630         0.0000000000
   2    3   1    3        -0.0000000000         0.0000000000
   2    3   2    3         4.5515556360         0.0000000000
   2    3   3    3        -0.0000000000         0.0000000000
   2    3   1    4        -0.0000000000         0.0000000000
   2    3   2    4         2.0862033382        -0.0000000000
   2    3   3    4         0.0000000000         0.0000000000
   2    3   1    5         5.4077294485         0.0000000000
   2    3   2    5        -0.0000000000         0.0000000000
   2    3   3    5        -0.0000000000         0.0000000000
   2    3   1    6         0.1593108047         0.0000000000
   2    3   2    6         0.0000000000         0.0000000000
   2    3   3    6        -0.0000000000         0.0000000000
  
   3    3   1    1         0.0232551607         0.0000000000
   3    3   2    1         0.0000000000        -0.0000000000
   3    3   3    1         0.0000000000        -0.0000000000
   3    3   1    2         0.0000000000         0.0000000000
   3    3   2    2         0.0248318165         0.0000000004
   3    3   3    2         0.0000000000         0.0000000000
   3    3   1    3        -0.0000000000         0.0000000000
   3    3   2    3        -0.0000000000         0.0000000000
   3    3   3    3        10.5029537829         0.0000000000
   3    3   1    4        -0.0000000000         0.0000000000
   3    3   2    4         0.0000000000         0.0000000000
   3    3   3    4        -6.3287538800         0.0000000000
   3    3   1    5        -0.0000000000         0.0000000000
   3    3   2    5        -0.0000000000         0.0000000000
   3    3   3    5         0.0000000000         0.0000000000
   3    3   1    6         0.0000000000         0.0000000000
   3    3   2    6        -0.0000000000         0.0000000000
   3    3   3    6         0.0000000000         0.0000000000
  
   1    4   1    1        -0.0000000000        -0.0000000000
   1    4   2    1         0.0000000000        -0.0000000000
   1    4   3    1        -0.0310532378         0.0000000000
   1    4   1    2        -0.0000000000        -0.0000000000
   1    4   2    2         0.0000000000         0.0000000000
   1    4   3    2        -0.0000000000         0.0000000000
   1    4   1    3         2.0861549899         0.0000000000
   1    4   2    3        -0.0000000000         0.0000000000
   1    4   3    3        -0.0000000000         0.0000000000
   1    4   1    4         4.5536675324         0.0000000000
   1    4   2    4        -0.0000000000         0.0000000000
   1    4   3    4         0.0000000000         0.0000000000
   1    4   1    5        -0.0000000000         0.0000000000
   1    4   2    5         0.1592287676         0.0000000000
   1    4   3    5        -0.0000000000         0.0000000000
   1    4   1    6        -0.0000000000         0.0000000000
   1    4   2    6         5.4080576704         0.0000000000
   1    4   3    6        -0.0000000000         0.0000000000
  
   2    4   1    1         0.0000000000        -0.0000000000
   2    4   2    1        -0.0000000000         0.0000000000
   2    4   3    1        -0.0000000000        -0.0000000000
   2    4   1    2         0.0000000000         0.0000000000
   2    4   2    2         0.0000000000         0.0000000000
   2    4   3    2        -0.0307934630        -0.0000000000
   2    4   1    3        -0.0000000000         0.0000000000
   2    4   2    3         2.0862033382        -0.0000000000
   2    4   3    3         0.0000000000         0.0000000000
   2    4   1    4        -0.0000000000         0.0000000000
   2    4   2    4         4.5515556360         0.0000000000
   2    4   3    4         0.0000000000         0.0000000000
   2    4   1    5         0.1593108047         0.0000000000
   2    4   2    5         0.0000000000         0.0000000000
   2    4   3    5         0.0000000000         0.0000000000
   2    4   1    6         5.4077294485         0.0000000000
   2    4   2    6        -0.0000000000         0.0000000000
   2    4   3    6        -0.0000000000         0.0000000000
  
   3    4   1    1        -0.0232551607        -0.0000000000
   3    4   2    1        -0.0000000000        -0.0000000000
   3    4   3    1         0.0000000000        -0.0000000000
   3    4   1    2        -0.0000000000         0.0000000000
   3    4   2    2        -0.0248318165        -0.0000000004
   3    4   3    2         0.0000000000         0.0000000000
   3    4   1    3        -0.0000000000         0.0000000000
   3    4   2    3         0.0000000000         0.0000000000
   3    4   3    3        -6.3287538800         0.0000000000
   3    4   1    4         0.0000000000         0.0000000000
   3    4   2    4         0.0000000000         0.0000000000
   3    4   3    4        10.5029537829         0.0000000000
   3    4   1    5        -0.0000000000         0.0000000000
   3    4   2    5         0.0000000000         0.0000000000
   3    4   3    5         0.0000000000         0.0000000000
   3    4   1    6        -0.0000000000         0.0000000000
   3    4   2    6        -0.0000000000         0.0000000000
   3    4   3    6         0.0000000000         0.0000000000
  
   1    5   1    1        -0.0000000000        -0.0000000000
   1    5   2    1        -0.0000000000         0.0000000000
   1    5   3    1        -0.0000000000        -0.0000000000
   1    5   1    2         0.0000000000         0.0000000000
   1    5   2    2         0.0000000000         0.0000000000
   1    5   3    2         0.0307934630         0.0000000000
   1    5   1    3        -0.0000000000         0.0000000000
   1    5   2    3         5.4077294485         0.0000000000
   1    5   3    3        -0.0000000000         0.0000000000
   1    5   1    4        -0.0000000000         0.0000000000
   1    5   2    4         0.1593108047         0.0000000000
   1    5   3    4        -0.0000000000         0.0000000000
   1    5   1    5         4.5515556360         0.0000000000
   1    5   2    5        -0.0000000000         0.0000000000
   1    5   3    5        -0.0000000000         0.0000000000
   1    5   1    6         2.0862033382        -0.0000000000
   1    5   2    6        -0.0000000000         0.0000000000
   1    5   3    6        -0.0000000000         0.0000000000
  
   2    5   1    1        -0.0000000000         0.0000000000
   2    5   2    1         0.0000000000        -0.0000000000
   2    5   3    1         0.0310532378        -0.0000000000
   2    5   1    2         0.0000000000         0.0000000000
   2    5   2    2        -0.0000000000        -0.0000000000
   2    5   3    2         0.0000000000         0.0000000000
   2    5   1    3         5.4080576704         0.0000000000
   2    5   2    3        -0.0000000000         0.0000000000
   2    5   3    3        -0.0000000000         0.0000000000
   2    5   1    4         0.1592287676         0.0000000000
   2    5   2    4         0.0000000000         0.0000000000
   2    5   3    4         0.0000000000         0.0000000000
   2    5   1    5        -0.0000000000         0.0000000000
   2    5   2    5         4.5536675324         0.0000000000
   2    5   3    5        -0.0000000000         0.0000000000
   2    5   1    6        -0.0000000000         0.0000000000
   2    5   2    6         2.0861549899         0.0000000000
   2    5   3    6        -0.0000000000         0.0000000000
  
   3    5   1    1        -0.0000000000        -0.0000000000
   3    5   2    1         0.0232551607         0.0000000000
   3    5   3    1         0.0000000000        -0.0000000000
   3    5   1    2         0.0248318165         0.0000000004
   3    5   2    2         0.0000000000         0.0000000000
   3    5   3    2         0.0000000000         0.0000000000
   3    5   1    3        -0.0000000000         0.0000000000
   3    5   2    3        -0.0000000000         0.0000000000
   3    5   3    3         0.0000000000         0.0000000000
   3    5   1    4        -0.0000000000         0.0000000000
   3    5   2    4         0.0000000000         0.0000000000
   3    5   3    4         0.0000000000         0.0000000000
   3    5   1    5        -0.0000000000         0.0000000000
   3    5   2    5        -0.0000000000         0.0000000000
   3    5   3    5        10.5029537829         0.0000000000
   3    5   1    6        -0.0000000000         0.0000000000
   3    5   2    6        -0.0000000000         0.0000000000
   3    5   3    6        -6.3287538800         0.0000000000
  
   1    6   1    1        -0.0000000000         0.0000000000
   1    6   2    1         0.0000000000         0.0000000000
   1    6   3    1         0.0000000000        -0.0000000000
   1    6   1    2         0.0000000000         0.0000000000
   1    6   2    2         0.0000000000         0.0000000000
   1    6   3    2        -0.0307934630        -0.0000000000
   1    6   1    3        -0.0000000000         0.0000000000
   1    6   2    3         0.1593108047         0.0000000000
   1    6   3    3         0.0000000000         0.0000000000
   1    6   1    4        -0.0000000000         0.0000000000
   1    6   2    4         5.4077294485         0.0000000000
   1    6   3    4        -0.0000000000         0.0000000000
   1    6   1    5         2.0862033382        -0.0000000000
   1    6   2    5        -0.0000000000         0.0000000000
   1    6   3    5        -0.0000000000         0.0000000000
   1    6   1    6         4.5515556360         0.0000000000
   1    6   2    6        -0.0000000000         0.0000000000
   1    6   3    6         0.0000000000         0.0000000000
  
   2    6   1    1         0.0000000000         0.0000000000
   2    6   2    1        -0.0000000000        -0.0000000000
   2    6   3    1        -0.0310532378         0.0000000000
   2    6   1    2         0.0000000000         0.0000000000
   2    6   2    2        -0.0000000000        -0.0000000000
   2    6   3    2        -0.0000000000         0.0000000000
   2    6   1    3         0.1592287676         0.0000000000
   2    6   2    3         0.0000000000         0.0000000000
   2    6   3    3        -0.0000000000         0.0000000000
   2    6   1    4         5.4080576704         0.0000000000
   2    6   2    4        -0.0000000000         0.0000000000
   2    6   3    4        -0.0000000000         0.0000000000
   2    6   1    5        -0.0000000000         0.0000000000
   2    6   2    5         2.0861549899         0.0000000000
   2    6   3    5        -0.0000000000         0.0000000000
   2    6   1    6        -0.0000000000         0.0000000000
   2    6   2    6         4.5536675324         0.0000000000
   2    6   3    6         0.0000000000         0.0000000000
  
   3    6   1    1         0.0000000000        -0.0000000000
   3    6   2    1        -0.0232551607        -0.0000000000
   3    6   3    1         0.0000000000        -0.0000000000
   3    6   1    2        -0.0248318165        -0.0000000004
   3    6   2    2        -0.0000000000         0.0000000000
   3    6   3    2         0.0000000000         0.0000000000
   3    6   1    3         0.0000000000         0.0000000000
   3    6   2    3        -0.0000000000         0.0000000000
   3    6   3    3         0.0000000000         0.0000000000
   3    6   1    4        -0.0000000000         0.0000000000
   3    6   2    4        -0.0000000000         0.0000000000
   3    6   3    4         0.0000000000         0.0000000000
   3    6   1    5        -0.0000000000         0.0000000000
   3    6   2    5        -0.0000000000         0.0000000000
   3    6   3    5        -6.3287538800         0.0000000000
   3    6   1    6         0.0000000000         0.0000000000
   3    6   2    6         0.0000000000         0.0000000000
   3    6   3    6        10.5029537829         0.0000000000
  
  
  Dynamical matrix, in cartesian coordinates,
   if specified in the inputs, asr has been imposed
     j1       j2             matrix element
  dir pert dir pert     real part    imaginary part
  
   1    1   1    1         0.2375228620         0.0000000000
   1    1   2    1        -0.0000000000         0.0000000000
   1    1   3    1         0.0000000000         0.0000000000
   1    1   1    2         0.1862740003        -0.0000000000
   1    1   2    2        -0.0000000000         0.0000000000
   1    1   3    2         0.0000000000         0.0000000000
   1    1   1    3        -0.0000000000        -0.0000000000
   1    1   2    3         0.0000000000         0.0000000000
   1    1   3    3         0.0002527861         0.0000000000
   1    1   1    4        -0.0000000000        -0.0000000000
   1    1   2    4         0.0000000000         0.0000000000
   1    1   3    4        -0.0002527861        -0.0000000000
   1    1   1    5        -0.0000000000         0.0000000000
   1    1   2    5        -0.0000000000        -0.0000000000
   1    1   3    5        -0.0002527861        -0.0000000000
   1    1   1    6        -0.0000000000         0.0000000000
   1    1   2    6        -0.0000000000        -0.0000000000
   1    1   3    6         0.0002527861         0.0000000000
  
   2    1   1    1        -0.0000000000         0.0000000000
   2    1   2    1         0.2375228620         0.0000000000
   2    1   3    1        -0.0000000000         0.0000000000
   2    1   1    2         0.0000000000         0.0000000000
   2    1   2    2        -0.1862740003         0.0000000000
   2    1   3    2        -0.0000000000         0.0000000000
   2    1   1    3         0.0000000000         0.0000000000
   2    1   2    3        -0.0000000000         0.0000000000
   2    1   3    3         0.0002527861         0.0000000000
   2    1   1    4         0.0000000000         0.0000000000
   2    1   2    4        -0.0000000000         0.0000000000
   2    1   3    4        -0.0002527861        -0.0000000000
   2    1   1    5        -0.0000000000        -0.0000000000
   2    1   2    5        -0.0000000000         0.0000000000
   2    1   3    5         0.0002527861         0.0000000000
   2    1   1    6        -0.0000000000        -0.0000000000
   2    1   2    6        -0.0000000000         0.0000000000
   2    1   3    6        -0.0002527861        -0.0000000000
  
   3    1   1    1         0.0000000000         0.0000000000
   3    1   2    1        -0.0000000000         0.0000000000
   3    1   3    1         0.0512674864         0.0000000000
   3    1   1    2         0.0000000000         0.0000000000
   3    1   2    2        -0.0000000000         0.0000000000
   3    1   3    2        -0.0000000000         0.0000000000
   3    1   1    3         0.0003375520        -0.0000000000
   3    1   2    3         0.0003375520        -0.0000000000
   3    1   3    3         0.0000000000         0.0000000000
   3    1   1    4        -0.0003375520         0.0000000000
   3    1   2    4        -0.0003375520         0.0000000000
   3    1   3    4         0.0000000000         0.0000000000
   3    1   1    5        -0.0003375520         0.0000000000
   3    1   2    5         0.0003375520        -0.0000000000
   3    1   3    5         0.0000000000         0.0000000000
   3    1   1    6         0.0003375520        -0.0000000000
   3    1   2    6        -0.0003375520         0.0000000000
   3    1   3    6         0.0000000000         0.0000000000
  
   1    2   1    1         0.1862740003         0.0000000000
   1    2   2    1        -0.0000000000         0.0000000000
   1    2   3    1         0.0000000000         0.0000000000
   1    2   1    2         0.2375372418         0.0000000000
   1    2   2    2         0.0000000000         0.0000000000
   1    2   3    2         0.0000000000         0.0000000000
   1    2   1    3        -0.0000000000        -0.0000000000
   1    2   2    3        -0.0000000000         0.0000000000
   1    2   3    3        -0.0002699246         0.0000000000
   1    2   1    4        -0.0000000000         0.0000000000
   1    2   2    4        -0.0000000000         0.0000000000
   1    2   3    4         0.0002699246        -0.0000000000
   1    2   1    5        -0.0000000000         0.0000000000
   1    2   2    5         0.0000000000        -0.0000000000
   1    2   3    5         0.0002699246        -0.0000000000
   1    2   1    6        -0.0000000000        -0.0000000000
   1    2   2    6         0.0000000000        -0.0000000000
   1    2   3    6        -0.0002699246         0.0000000000
  
   2    2   1    1         0.0000000000         0.0000000000
   2    2   2    1        -0.1862740003        -0.0000000000
   2    2   3    1        -0.0000000000         0.0000000000
   2    2   1    2         0.0000000000         0.0000000000
   2    2   2    2         0.2375372418         0.0000000000
   2    2   3    2        -0.0000000000         0.0000000000
   2    2   1    3        -0.0000000000         0.0000000000
   2    2   2    3        -0.0000000000        -0.0000000000
   2    2   3    3         0.0002699246        -0.0000000000
   2    2   1    4        -0.0000000000         0.0000000000
   2    2   2    4        -0.0000000000        -0.0000000000
   2    2   3    4        -0.0002699246         0.0000000000
   2    2   1    5         0.0000000000        -0.0000000000
   2    2   2    5        -0.0000000000        -0.0000000000
   2    2   3    5         0.0002699246        -0.0000000000
   2    2   1    6         0.0000000000        -0.0000000000
   2    2   2    6        -0.0000000000        -0.0000000000
   2    2   3    6        -0.0002699246         0.0000000000
  
   3    2   1    1         0.0000000000         0.0000000000
   3    2   2    1        -0.0000000000         0.0000000000
   3    2   3    1        -0.0000000000         0.0000000000
   3    2   1    2         0.0000000000         0.0000000000
   3    2   2    2        -0.0000000000         0.0000000000
   3    2   3    2         0.0512715206         0.0000000000
   3    2   1    3        -0.0003347284        -0.0000000000
   3    2   2    3         0.0003347284         0.0000000000
   3    2   3    3         0.0000000000        -0.0000000000
   3    2   1    4         0.0003347284         0.0000000000
   3    2   2    4        -0.0003347284        -0.0000000000
   3    2   3    4         0.0000000000        -0.0000000000
   3    2   1    5         0.0003347284         0.0000000000
   3    2   2    5         0.0003347284         0.0000000000
   3    2   3    5         0.0000000000        -0.0000000000
   3    2   1    6        -0.0003347284        -0.0000000000
   3    2   2    6        -0.0003347284        -0.0000000000
   3    2   3    6         0.0000000000        -0.0000000000
  
   1    3   1    1        -0.0000000000         0.0000000000
   1    3   2    1         0.0000000000        -0.0000000000
   1    3   3    1         0.0003375522        -0.0000000000
   1    3   1    2        -0.0000000000         0.0000000000
   1    3   2    2        -0.0000000000        -0.0000000000
   1    3   3    2        -0.0003347284        -0.0000000000
   1    3   1    3         0.0989750489         0.0000000000
   1    3   2    3         0.0000229566         0.0000000000
   1    3   3    3         0.0000000000         0.0000000000
   1    3   1    4         0.0453541184        -0.0000000000
   1    3   2    4        -0.0000005256         0.0000000000
   1    3   3    4        -0.0000000000         0.0000000000
   1    3   1    5        -0.1175691182         0.0000000000
   1    3   2    5         0.0000035678         0.0000000000
   1    3   3    5        -0.0000000000         0.0000000000
[...]
  
   2    6   1    1        -0.0000000000         0.0000000000
   2    6   2    1        -0.0000000000        -0.0000000000
   2    6   3    1        -0.0003375522         0.0000000000
   2    6   1    2         0.0000000000         0.0000000000
   2    6   2    2        -0.0000000000         0.0000000000
   2    6   3    2        -0.0003347284        -0.0000000000
   2    6   1    3        -0.0000008918         0.0000000000
   2    6   2    3         0.0034625697         0.0000000000
   2    6   3    3        -0.0000000000         0.0000000000
   2    6   1    4         0.0000035678         0.0000000000
   2    6   2    4         0.1175691182         0.0000000000
   2    6   3    4        -0.0000000000         0.0000000000
   2    6   1    5         0.0000005256        -0.0000000000
   2    6   2    5         0.0453541184        -0.0000000000
   2    6   3    5        -0.0000000000         0.0000000000
   2    6   1    6        -0.0000229566         0.0000000000
   2    6   2    6         0.0989750489         0.0000000000
   2    6   3    6         0.0000000000         0.0000000000
  
   3    6   1    1         0.0002527862         0.0000000000
   3    6   2    1        -0.0002527862        -0.0000000000
   3    6   3    1         0.0000000000        -0.0000000000
   3    6   1    2        -0.0002699246        -0.0000000000
   3    6   2    2        -0.0002699246        -0.0000000000
   3    6   3    2         0.0000000000         0.0000000000
   3    6   1    3         0.0000000000         0.0000000000
   3    6   2    3        -0.0000000000         0.0000000000
   3    6   3    3         0.0000000000         0.0000000000
   3    6   1    4         0.0000000000         0.0000000000
   3    6   2    4        -0.0000000000         0.0000000000
   3    6   3    4         0.0000000000         0.0000000000
   3    6   1    5         0.0000000000         0.0000000000
   3    6   2    5        -0.0000000000         0.0000000000
   3    6   3    5        -0.0687940959         0.0000000000
   3    6   1    6         0.0000000000        -0.0000000000
   3    6   2    6         0.0000000000         0.0000000000
   3    6   3    6         0.1141680058         0.0000000000
 
  Phonon wavevector (reduced coordinates) :  0.50000  0.50000  0.00000
 Phonon energies in Hartree :
  -1.440331E-03 -1.439879E-03  3.968922E-04  3.968922E-04  3.969267E-04
   3.969427E-04  8.933844E-04  8.941423E-04  1.141289E-03  1.141289E-03
   1.247301E-03  1.247301E-03  2.397920E-03  2.398319E-03  2.504661E-03
   2.504661E-03  3.016241E-03  3.016526E-03
 Phonon frequencies in cm-1    :
- -3.161162E+02 -3.160168E+02  8.710778E+01  8.710778E+01  8.711535E+01
-  8.711885E+01  1.960752E+02  1.962415E+02  2.504839E+02  2.504839E+02
-  2.737509E+02  2.737509E+02  5.262826E+02  5.263703E+02  5.497096E+02
-  5.497096E+02  6.619883E+02  6.620509E+02
 
== END DATASET(S) ==============================================================
================================================================================
  
 -outvars: echo values of variables after computation  --------
            acell      6.7821515019E+00  6.7821515019E+00  9.5914334888E+00 Bohr
              amu      1.78490000E+02  1.59994000E+01
          chkprim           0
             ecut      2.50000000E+01 Hartree
           ecutsm      5.00000000E-01 Hartree
           etotal1    -1.7931033542E+02
           etotal2     1.0502953791E+01
            fcart1     0.0000000000E+00  0.0000000000E+00 -5.6468863150E-22
                       0.0000000000E+00  0.0000000000E+00 -5.6468863150E-22
                       0.0000000000E+00  0.0000000000E+00  1.7600640950E-05
                       0.0000000000E+00  0.0000000000E+00 -1.7600640950E-05
                       0.0000000000E+00  0.0000000000E+00  1.7600640950E-05
                       0.0000000000E+00  0.0000000000E+00 -1.7600640950E-05
            fcart2     0.0000000000E+00  0.0000000000E+00  0.0000000000E+00
                       0.0000000000E+00  0.0000000000E+00  0.0000000000E+00
                       0.0000000000E+00  0.0000000000E+00  0.0000000000E+00
                       0.0000000000E+00  0.0000000000E+00  0.0000000000E+00
                       0.0000000000E+00  0.0000000000E+00  0.0000000000E+00
                       0.0000000000E+00  0.0000000000E+00  0.0000000000E+00
-          fftalg         512
           getwfk1          0
           getwfk2          1
           istwfk1       2    0    0    3    0    0    0    0    0    0
                         0    0    0    0    0    0    0    0    6    0
                         0    7    0    0    0    0    0    0    0    0
                         0    0    0    0    0    0    0    0    0    0
                         0    0    0    0    0    0    0    0    0    0
           istwfk2       1    0    0    1    0    0    0    0    0    0
                         0    0    0    0    0    0    0    0    1    0
                         0    1    0    0    0    0    0    0    0    0
                         0    0    0    0    0    0    0    0    0    0
                         0    0    0    0    0    0    0    0    0    0
                       outvar_i_n : Printing only first  50 k-points.
              ixc          11
           jdtset        1    2
              kpt      0.00000000E+00  0.00000000E+00  0.00000000E+00
                       1.66666667E-01  0.00000000E+00  0.00000000E+00
                       3.33333333E-01  0.00000000E+00  0.00000000E+00
                       5.00000000E-01  0.00000000E+00  0.00000000E+00
                      -3.33333333E-01  0.00000000E+00  0.00000000E+00
                      -1.66666667E-01  0.00000000E+00  0.00000000E+00
                       0.00000000E+00  1.66666667E-01  0.00000000E+00
                       1.66666667E-01  1.66666667E-01  0.00000000E+00
                       3.33333333E-01  1.66666667E-01  0.00000000E+00
                       5.00000000E-01  1.66666667E-01  0.00000000E+00
                      -3.33333333E-01  1.66666667E-01  0.00000000E+00
                      -1.66666667E-01  1.66666667E-01  0.00000000E+00
                       0.00000000E+00  3.33333333E-01  0.00000000E+00
                       1.66666667E-01  3.33333333E-01  0.00000000E+00
                       3.33333333E-01  3.33333333E-01  0.00000000E+00
                       5.00000000E-01  3.33333333E-01  0.00000000E+00
                      -3.33333333E-01  3.33333333E-01  0.00000000E+00
                      -1.66666667E-01  3.33333333E-01  0.00000000E+00
                       0.00000000E+00  5.00000000E-01  0.00000000E+00
                       1.66666667E-01  5.00000000E-01  0.00000000E+00
                       3.33333333E-01  5.00000000E-01  0.00000000E+00
                       5.00000000E-01  5.00000000E-01  0.00000000E+00
                      -3.33333333E-01  5.00000000E-01  0.00000000E+00
                      -1.66666667E-01  5.00000000E-01  0.00000000E+00
                       0.00000000E+00 -3.33333333E-01  0.00000000E+00
                       1.66666667E-01 -3.33333333E-01  0.00000000E+00
                       3.33333333E-01 -3.33333333E-01  0.00000000E+00
                       5.00000000E-01 -3.33333333E-01  0.00000000E+00
                      -3.33333333E-01 -3.33333333E-01  0.00000000E+00
                      -1.66666667E-01 -3.33333333E-01  0.00000000E+00
                       0.00000000E+00 -1.66666667E-01  0.00000000E+00
                       1.66666667E-01 -1.66666667E-01  0.00000000E+00
                       3.33333333E-01 -1.66666667E-01  0.00000000E+00
                       5.00000000E-01 -1.66666667E-01  0.00000000E+00
                      -3.33333333E-01 -1.66666667E-01  0.00000000E+00
                      -1.66666667E-01 -1.66666667E-01  0.00000000E+00
                       0.00000000E+00  0.00000000E+00  1.66666667E-01
                       1.66666667E-01  0.00000000E+00  1.66666667E-01
                       3.33333333E-01  0.00000000E+00  1.66666667E-01
                       5.00000000E-01  0.00000000E+00  1.66666667E-01
                      -3.33333333E-01  0.00000000E+00  1.66666667E-01
                      -1.66666667E-01  0.00000000E+00  1.66666667E-01
                       0.00000000E+00  1.66666667E-01  1.66666667E-01
                       1.66666667E-01  1.66666667E-01  1.66666667E-01
                       3.33333333E-01  1.66666667E-01  1.66666667E-01
                       5.00000000E-01  1.66666667E-01  1.66666667E-01
                      -3.33333333E-01  1.66666667E-01  1.66666667E-01
                      -1.66666667E-01  1.66666667E-01  1.66666667E-01
                       0.00000000E+00  3.33333333E-01  1.66666667E-01
                       1.66666667E-01  3.33333333E-01  1.66666667E-01
                       outvar_i_n : Printing only first  50 k-points.
           kptopt           3
         kptrlatt        6    0    0      0    6    0      0    0    6
          kptrlen      4.06929043E+01
P           mkmem          12
P          mkqmem          12
P          mk1mem          12
            natom           6
            nband          24
           ndtset           2
            ngfft          32      32      45
             nkpt         216
             nqpt1          0
             nqpt2          1
            nstep         100
             nsym          16
           ntypat           2
              occ      2.000000  2.000000  2.000000  2.000000  2.000000  2.000000
                       2.000000  2.000000  2.000000  2.000000  2.000000  2.000000
                       2.000000  2.000000  2.000000  2.000000  2.000000  2.000000
                       2.000000  2.000000  2.000000  2.000000  2.000000  2.000000
        optdriver1          0
        optdriver2          1
        pawecutdg      3.00000000E+01 Hartree
         pawxcdev           0
              qpt1     0.00000000E+00  0.00000000E+00  0.00000000E+00
              qpt2     5.00000000E-01  5.00000000E-01  0.00000000E+00
          rfatpol1          1       1
          rfatpol2          1       6
            rfdir1          0       0       0
            rfdir2          1       1       1
           rfphon1          0
           rfphon2          1
            rprim      7.0710670000E-01  7.0710670000E-01  0.0000000000E+00
                      -7.0710670000E-01  7.0710670000E-01  0.0000000000E+00
                       0.0000000000E+00  0.0000000000E+00  1.0000000000E+00
           strten1    -9.0761522840E-05 -9.0761522840E-05 -9.8824685013E-05
                       0.0000000000E+00  0.0000000000E+00  0.0000000000E+00
           strten2     0.0000000000E+00  0.0000000000E+00  0.0000000000E+00
                       0.0000000000E+00  0.0000000000E+00  0.0000000000E+00
        symmorphi           0
           symrel      1  0  0   0  1  0   0  0  1      -1  0  0   0 -1  0   0  0 -1
                      -1  0  0   0  1  0   0  0 -1       1  0  0   0 -1  0   0  0  1
                      -1  0  0   0 -1  0   0  0  1       1  0  0   0  1  0   0  0 -1
                       1  0  0   0 -1  0   0  0 -1      -1  0  0   0  1  0   0  0  1
                       0  1  0   1  0  0   0  0  1       0 -1  0  -1  0  0   0  0 -1
                       0 -1  0   1  0  0   0  0 -1       0  1  0  -1  0  0   0  0  1
                       0 -1  0  -1  0  0   0  0  1       0  1  0   1  0  0   0  0 -1
                       0  1  0  -1  0  0   0  0 -1       0 -1  0   1  0  0   0  0  1
           toldfe1     1.00000000E-13 Hartree
           toldfe2     0.00000000E+00 Hartree
           tolvrs1     0.00000000E+00
           tolvrs2     1.00000000E-13
            typat      1  1  2  2  2  2
              wtk        0.00463    0.00463    0.00463    0.00463    0.00463    0.00463
                         0.00463    0.00463    0.00463    0.00463    0.00463    0.00463
                         0.00463    0.00463    0.00463    0.00463    0.00463    0.00463
                         0.00463    0.00463    0.00463    0.00463    0.00463    0.00463
                         0.00463    0.00463    0.00463    0.00463    0.00463    0.00463
                         0.00463    0.00463    0.00463    0.00463    0.00463    0.00463
                         0.00463    0.00463    0.00463    0.00463    0.00463    0.00463
                         0.00463    0.00463    0.00463    0.00463    0.00463    0.00463
                         0.00463    0.00463
                       outvars : Printing only first  50 k-points.
           xangst      0.0000000000E+00  0.0000000000E+00  0.0000000000E+00
                       0.0000000000E+00  2.5377776620E+00  2.5377840000E+00
                       1.2688888310E+00  1.2688888310E+00  1.2688920000E+00
                       1.2688888310E+00  1.2688888310E+00  3.8066760000E+00
                      -1.2688888310E+00  1.2688888310E+00  1.2688920000E+00
                      -1.2688888310E+00  1.2688888310E+00  3.8066760000E+00
            xcart      0.0000000000E+00  0.0000000000E+00  0.0000000000E+00
                       0.0000000000E+00  4.7957047674E+00  4.7957167444E+00
                       2.3978523837E+00  2.3978523837E+00  2.3978583722E+00
                       2.3978523837E+00  2.3978523837E+00  7.1935751166E+00
                      -2.3978523837E+00  2.3978523837E+00  2.3978583722E+00
                      -2.3978523837E+00  2.3978523837E+00  7.1935751166E+00
             xred      0.0000000000E+00  0.0000000000E+00  0.0000000000E+00
                       5.0000000000E-01  5.0000000000E-01  5.0000000000E-01
                       5.0000000000E-01  0.0000000000E+00  2.5000000000E-01
                       5.0000000000E-01  0.0000000000E+00  7.5000000000E-01
                       0.0000000000E+00  5.0000000000E-01  2.5000000000E-01
                       0.0000000000E+00  5.0000000000E-01  7.5000000000E-01
            znucl       72.00000    8.00000
 
================================================================================


- Timing analysis has been suppressed with timopt=0



================================================================================

 Suggested references for the acknowledgment of ABINIT usage.

 The users of ABINIT have little formal obligations with respect to the ABINIT group
 (those specified in the GNU General Public License, http://www.gnu.org/copyleft/gpl.txt).
 However, it is common practice in the scientific literature,
 to acknowledge the efforts of people that have made the research possible.
 In this spirit, please find below suggested citations of work written by ABINIT developers,
 corresponding to implementations inside of ABINIT that you have used in the present run.
 Note also that it will be of great value to readers of publications presenting these results,
 to read papers enabling them to understand the theoretical formalism and details
 of the ABINIT implementation.
 For information on why they are suggested, see also https://docs.abinit.org/theory/acknowledgments.
-
- [1] Specification of an extensible and portable file format for electronic structure and crystallographic data
- X. Gonze, C.-O. Almbladh, A. Cucca, D. Caliste, C. Freysoldt, M. Marques, V. Olevano, Y. Pouillon, M.J. Verstraete,
- Comput. Material Science 43, 1056 (2008).
- Comment: to be cited in case the ETSF_IO file format is used, i.e. iomode=3.
- DOI and bibtex: see https://docs.abinit.org/theory/bibliography/#gonze2008
-
- [2] The Abinit project: Impact, environment and recent developments.
- Computer Phys. Comm. 248, 107042 (2020).
- X.Gonze, B. Amadon, G. Antonius, F.Arnardi, L.Baguet, J.-M.Beuken,
- J.Bieder, F.Bottin, J.Bouchet, E.Bousquet, N.Brouwer, F.Bruneval,
- G.Brunin, T.Cavignac, J.-B. Charraud, Wei Chen, M.Cote, S.Cottenier,
- J.Denier, G.Geneste, Ph.Ghosez, M.Giantomassi, Y.Gillet, O.Gingras,
- D.R.Hamann, G.Hautier, Xu He, N.Helbig, N.Holzwarth, Y.Jia, F.Jollet,
- W.Lafargue-Dit-Hauret, K.Lejaeghere, M.A.L.Marques, A.Martin, C.Martins,
- H.P.C. Miranda, F.Naccarato, K. Persson, G.Petretto, V.Planes, Y.Pouillon,
- S.Prokhorenko, F.Ricci, G.-M.Rignanese, A.H.Romero, M.M.Schmitt, M.Torrent,
- M.J.van Setten, B.Van Troeye, M.J.Verstraete, G.Zerah and J.W.Zwanzig
- Comment: the fifth generic paper describing the ABINIT project.
- Note that a version of this paper, that is not formatted for Computer Phys. Comm. 
- is available at https://www.abinit.org/sites/default/files/ABINIT20.pdf .
- The licence allows the authors to put it on the Web.
- DOI and bibtex: see https://docs.abinit.org/theory/bibliography/#gonze2020
-
- [3] First-principles responses of solids to atomic displacements and homogeneous electric fields:,
- implementation of a conjugate-gradient algorithm. X. Gonze, Phys. Rev. B55, 10337 (1997).
- Comment: Non-vanishing rfphon and/or rfelfd, in the norm-conserving case.
- DOI and bibtex: see https://docs.abinit.org/theory/bibliography/#gonze1997
-
- [4] Dynamical matrices, Born effective charges, dielectric permittivity tensors, and ,
- interatomic force constants from density-functional perturbation theory,
- X. Gonze and C. Lee, Phys. Rev. B55, 10355 (1997).
- Comment: Non-vanishing rfphon and/or rfelfd, in the norm-conserving case.
- DOI and bibtex: see https://docs.abinit.org/theory/bibliography/#gonze1997a
-
- [5] Optimized norm-conserving Vanderbilt pseudopotentials.
- D.R. Hamann, Phys. Rev. B 88, 085117 (2013).
- Comment: Some pseudopotential generated using the ONCVPSP code were used.
- DOI and bibtex: see https://docs.abinit.org/theory/bibliography/#hamann2013
-
- [6] ABINIT: Overview, and focus on selected capabilities
- J. Chem. Phys. 152, 124102 (2020).
- A. Romero, D.C. Allan, B. Amadon, G. Antonius, T. Applencourt, L.Baguet,
- J.Bieder, F.Bottin, J.Bouchet, E.Bousquet, F.Bruneval,
- G.Brunin, D.Caliste, M.Cote,
- J.Denier, C. Dreyer, Ph.Ghosez, M.Giantomassi, Y.Gillet, O.Gingras,
- D.R.Hamann, G.Hautier, F.Jollet, G. Jomard,
- A.Martin, 
- H.P.C. Miranda, F.Naccarato, G.Petretto, N.A. Pike, V.Planes,
- S.Prokhorenko, T. Rangel, F.Ricci, G.-M.Rignanese, M.Royo, M.Stengel, M.Torrent,
- M.J.van Setten, B.Van Troeye, M.J.Verstraete, J.Wiktor, J.W.Zwanziger, and X.Gonze.
- Comment: a global overview of ABINIT, with focus on selected capabilities .
- Note that a version of this paper, that is not formatted for J. Chem. Phys 
- is available at https://www.abinit.org/sites/default/files/ABINIT20_JPC.pdf .
- The licence allows the authors to put it on the Web.
- DOI and bibtex: see https://docs.abinit.org/theory/bibliography/#romero2020
-
- [7] Recent developments in the ABINIT software package.
- Computer Phys. Comm. 205, 106 (2016).
- X.Gonze, F.Jollet, F.Abreu Araujo, D.Adams, B.Amadon, T.Applencourt,
- C.Audouze, J.-M.Beuken, J.Bieder, A.Bokhanchuk, E.Bousquet, F.Bruneval
- D.Caliste, M.Cote, F.Dahm, F.Da Pieve, M.Delaveau, M.Di Gennaro,
- B.Dorado, C.Espejo, G.Geneste, L.Genovese, A.Gerossier, M.Giantomassi,
- Y.Gillet, D.R.Hamann, L.He, G.Jomard, J.Laflamme Janssen, S.Le Roux,
- A.Levitt, A.Lherbier, F.Liu, I.Lukacevic, A.Martin, C.Martins,
- M.J.T.Oliveira, S.Ponce, Y.Pouillon, T.Rangel, G.-M.Rignanese,
- A.H.Romero, B.Rousseau, O.Rubel, A.A.Shukri, M.Stankovski, M.Torrent,
- M.J.Van Setten, B.Van Troeye, M.J.Verstraete, D.Waroquier, J.Wiktor,
- B.Xu, A.Zhou, J.W.Zwanziger.
- Comment: the fourth generic paper describing the ABINIT project.
- Note that a version of this paper, that is not formatted for Computer Phys. Comm. 
- is available at https://www.abinit.org/sites/default/files/ABINIT16.pdf .
- The licence allows the authors to put it on the Web.
- DOI and bibtex: see https://docs.abinit.org/theory/bibliography/#gonze2016
-
- Proc.   0 individual time (sec): cpu=        259.0  wall=        306.3
 
================================================================================
 
 Calculation completed.
.Delivered   0 WARNINGs and   0 COMMENTs to log file.
+Overall time at end (sec) : cpu=       4890.8  wall=       5512.4
