
.Version 9.4.2 of ABINIT 
.(MPI version, prepared for a x86_64_linux_intel2021.2 computer) 

.Copyright (C) 1998-2021 ABINIT group . 
 ABINIT comes with ABSOLUTELY NO WARRANTY.
 It is free software, and you are welcome to redistribute it
 under certain conditions (GNU General Public License,
 see ~abinit/COPYING or http://www.gnu.org/copyleft/gpl.txt).

 ABINIT is a project of the Universite Catholique de Louvain,
 Corning Inc. and other collaborators, see ~abinit/doc/developers/contributors.txt .
 Please read https://docs.abinit.org/theory/acknowledgments for suggested
 acknowledgments of the ABINIT effort.
 For more information, see https://www.abinit.org .

.Starting date : Fri 28 May 2021.
- ( at 09h32 )
  
- input  file    -> /workspace/jiahaoz/HZO/LG_Model/GroundP/HfZrO4/WaveVector/test444/dfpt0
- output file    -> /workspace/jiahaoz/HZO/LG_Model/GroundP/HfZrO4/WaveVector/test444/dfpt0.abo
- root for input  files -> i
- root for output files -> o
 
 
 DATASET    1 : space group P4/m m m (#123); Bravais tP (primitive tetrag.)
================================================================================
 Values of the parameters that define the memory need for DATASET  1.
     intxc =       0    ionmov =       0      iscf =       7    lmnmax =       8
     lnmax =       8     mgfft =      48  mpssoang =       4    mqgrid =    3001
     natom =       6  nloc_mem =       1    nspden =       1   nspinor =       1
    nsppol =       1      nsym =      16    n1xccc =    2501    ntypat =       3
    occopt =       1   xclevel =       2
-    mband =          24        mffmem =           1         mkmem =           1
       mpw =        3064          nfft =       62208          nkpt =          36
================================================================================
P This job should need less than                      23.078 Mbytes of memory.
  Rough estimation (10% accuracy) of disk space for files :
_ WF disk file :     40.397 Mbytes ; DEN or POT disk file :      0.477 Mbytes.
================================================================================
 
 
 DATASET    2 : space group P4/m m m (#123); Bravais tP (primitive tetrag.)
================================================================================
 Values of the parameters that define the memory need for DATASET  2.
     intxc =       0    ionmov =       0      iscf =      -2    lmnmax =       8
     lnmax =       8     mgfft =      48  mpssoang =       4    mqgrid =    3001
     natom =       6  nloc_mem =       1    nspden =       1   nspinor =       1
    nsppol =       1      nsym =      16    n1xccc =    2501    ntypat =       3
    occopt =       1   xclevel =       2
-    mband =          24        mffmem =           1         mkmem =           1
       mpw =        3080          nfft =       62208          nkpt =          36
================================================================================
P This job should need less than                      15.016 Mbytes of memory.
  Rough estimation (10% accuracy) of disk space for files :
_ WF disk file :     40.607 Mbytes ; DEN or POT disk file :      0.477 Mbytes.
================================================================================
 
 
 DATASET    3 : space group P4/m m m (#123); Bravais tP (primitive tetrag.)
================================================================================
 Values of the parameters that define the memory need for DATASET  3 (RF).
     intxc =       0      iscf =       7    lmnmax =       8     lnmax =       8
     mgfft =      48  mpssoang =       4    mqgrid =    3001     natom =       6
  nloc_mem =       1    nspden =       1   nspinor =       1    nsppol =       1
      nsym =      16    n1xccc =    2501    ntypat =       3    occopt =       1
   xclevel =       2
-    mband =          24        mffmem =           1         mkmem =           1
-   mkqmem =           1        mk1mem =           1           mpw =        3080
      nfft =       62208          nkpt =          36
================================================================================
P This job should need less than                      20.953 Mbytes of memory.
  Rough estimation (10% accuracy) of disk space for files :
_ WF disk file :     40.607 Mbytes ; DEN or POT disk file :      0.477 Mbytes.
================================================================================
 
--------------------------------------------------------------------------------
------------- Echo of variables that govern the present computation ------------
--------------------------------------------------------------------------------
-
- outvars: echo of selected default values                                      
-   iomode0 =  3 , fftalg0 =512 , wfoptalg0 =  0
-
- outvars: echo of global parameters not present in the input file              
-  max_nthreads =    0
-
 -outvars: echo values of preprocessed input variables --------
            acell      6.7784476387E+00  6.7784476387E+00  9.5867885420E+00 Bohr
              amu      1.78490000E+02  9.12240000E+01  1.59994000E+01
         berryopt1          0
         berryopt2         -2
         berryopt3          0
          dilatmx      1.05000000E+00
             ecut      2.50000000E+01 Hartree
           ecutsm      5.00000000E-01 Hartree
-          fftalg         512
           getddk1          0
           getddk2          0
           getddk3          2
           getden1          0
           getden2          1
           getden3          0
           getwfk1          0
           getwfk2          1
           getwfk3          2
             iscf1          7
             iscf2         -2
             iscf3          7
           istwfk1       2    0    3    0    0    0    0    6    0    7
                         0    0    0    0    0    0    0    0    0    0
                         0    0    0    0    0    0    4    0    5    0
                         0    0    0    8    0    9
           istwfk2       1    0    1    0    0    0    0    1    0    1
                         0    0    0    0    0    0    0    0    0    0
                         0    0    0    0    0    0    1    0    1    0
                         0    0    0    1    0    1
           istwfk3       1    0    1    0    0    0    0    1    0    1
                         0    0    0    0    0    0    0    0    0    0
                         0    0    0    0    0    0    1    0    1    0
                         0    0    0    1    0    1
              ixc          11
           jdtset        1    2    3
              kpt      0.00000000E+00  0.00000000E+00  0.00000000E+00
                       2.50000000E-01  0.00000000E+00  0.00000000E+00
                       5.00000000E-01  0.00000000E+00  0.00000000E+00
                       0.00000000E+00  2.50000000E-01  0.00000000E+00
                       2.50000000E-01  2.50000000E-01  0.00000000E+00
                       5.00000000E-01  2.50000000E-01  0.00000000E+00
                      -2.50000000E-01  2.50000000E-01  0.00000000E+00
                       0.00000000E+00  5.00000000E-01  0.00000000E+00
                       2.50000000E-01  5.00000000E-01  0.00000000E+00
                       5.00000000E-01  5.00000000E-01  0.00000000E+00
                       0.00000000E+00  0.00000000E+00  2.50000000E-01
                       2.50000000E-01  0.00000000E+00  2.50000000E-01
                       5.00000000E-01  0.00000000E+00  2.50000000E-01
                      -2.50000000E-01  0.00000000E+00  2.50000000E-01
                       0.00000000E+00  2.50000000E-01  2.50000000E-01
                       2.50000000E-01  2.50000000E-01  2.50000000E-01
                       5.00000000E-01  2.50000000E-01  2.50000000E-01
                      -2.50000000E-01  2.50000000E-01  2.50000000E-01
                       0.00000000E+00  5.00000000E-01  2.50000000E-01
                       2.50000000E-01  5.00000000E-01  2.50000000E-01
                       5.00000000E-01  5.00000000E-01  2.50000000E-01
                      -2.50000000E-01  5.00000000E-01  2.50000000E-01
                       0.00000000E+00 -2.50000000E-01  2.50000000E-01
                       2.50000000E-01 -2.50000000E-01  2.50000000E-01
                       5.00000000E-01 -2.50000000E-01  2.50000000E-01
                      -2.50000000E-01 -2.50000000E-01  2.50000000E-01
                       0.00000000E+00  0.00000000E+00  5.00000000E-01
                       2.50000000E-01  0.00000000E+00  5.00000000E-01
                       5.00000000E-01  0.00000000E+00  5.00000000E-01
                       0.00000000E+00  2.50000000E-01  5.00000000E-01
                       2.50000000E-01  2.50000000E-01  5.00000000E-01
                       5.00000000E-01  2.50000000E-01  5.00000000E-01
                      -2.50000000E-01  2.50000000E-01  5.00000000E-01
                       0.00000000E+00  5.00000000E-01  5.00000000E-01
                       2.50000000E-01  5.00000000E-01  5.00000000E-01
                       5.00000000E-01  5.00000000E-01  5.00000000E-01
           kptopt           2
         kptrlatt        4    0    0      0    4    0      0    0    4
          kptrlen      2.71137906E+01
P           mkmem           1
P          mkqmem           1
P          mk1mem           1
            natom           6
            nband          24
           nbdbuf1          0
           nbdbuf2          2
           nbdbuf3          0
           ndtset           3
            ngfft          36      36      48
             nkpt          36
            nstep1        100
            nstep2         30
            nstep3        100
             nsym          16
           ntypat           3
              occ      2.000000  2.000000  2.000000  2.000000  2.000000  2.000000
                       2.000000  2.000000  2.000000  2.000000  2.000000  2.000000
                       2.000000  2.000000  2.000000  2.000000  2.000000  2.000000
                       2.000000  2.000000  2.000000  2.000000  2.000000  2.000000
        optdriver1          0
        optdriver2          0
        optdriver3          1
        pawecutdg      3.00000000E+01 Hartree
         pawxcdev           0
           prtden1          1
           prtden2          0
           prtden3          0
           prteig           0
            prtwf1          1
            prtwf2          1
            prtwf3          0
          rfatpol1          1       1
          rfatpol2          1       1
          rfatpol3          1       6
            rfdir1          0       0       0
            rfdir2          1       1       1
            rfdir3          1       1       1
           rfelfd1          0
           rfelfd2          0
           rfelfd3          3
           rfphon1          0
           rfphon2          0
           rfphon3          1
           rfstrs1          0
           rfstrs2          0
           rfstrs3          3
          spgroup         123
        symmorphi           0
           symrel      1  0  0   0  1  0   0  0  1      -1  0  0   0 -1  0   0  0 -1
                      -1  0  0   0  1  0   0  0 -1       1  0  0   0 -1  0   0  0  1
                      -1  0  0   0 -1  0   0  0  1       1  0  0   0  1  0   0  0 -1
                       1  0  0   0 -1  0   0  0 -1      -1  0  0   0  1  0   0  0  1
                       0  1  0   1  0  0   0  0  1       0 -1  0  -1  0  0   0  0 -1
                       0 -1  0   1  0  0   0  0 -1       0  1  0  -1  0  0   0  0  1
                       0 -1  0  -1  0  0   0  0  1       0  1  0   1  0  0   0  0 -1
                       0  1  0  -1  0  0   0  0 -1       0 -1  0   1  0  0   0  0  1
           toldfe1     1.00000000E-13 Hartree
           toldfe2     0.00000000E+00 Hartree
           toldfe3     0.00000000E+00 Hartree
           tolvrs1     0.00000000E+00
           tolvrs2     0.00000000E+00
           tolvrs3     1.00000000E-13
           tolwfr1     0.00000000E+00
           tolwfr2     1.00000000E-22
           tolwfr3     0.00000000E+00
            typat      1  2  3  3  3  3
              wtk        0.01563    0.03125    0.01563    0.03125    0.03125    0.03125
                         0.03125    0.01563    0.03125    0.01563    0.03125    0.03125
                         0.03125    0.03125    0.03125    0.03125    0.03125    0.03125
                         0.03125    0.03125    0.03125    0.03125    0.03125    0.03125
                         0.03125    0.03125    0.01563    0.03125    0.01563    0.03125
                         0.03125    0.03125    0.03125    0.01563    0.03125    0.01563
           xangst      0.0000000000E+00  0.0000000000E+00  0.0000000000E+00
                       1.7935000000E+00  1.7935000000E+00  2.5365550000E+00
                       1.7935000000E+00  0.0000000000E+00  1.2682775000E+00
                       1.7935000000E+00  0.0000000000E+00  3.8048325000E+00
                       0.0000000000E+00  1.7935000000E+00  1.2682775000E+00
                       0.0000000000E+00  1.7935000000E+00  3.8048325000E+00
            xcart      0.0000000000E+00  0.0000000000E+00  0.0000000000E+00
                       3.3892238193E+00  3.3892238193E+00  4.7933942710E+00
                       3.3892238193E+00  0.0000000000E+00  2.3966971355E+00
                       3.3892238193E+00  0.0000000000E+00  7.1900914065E+00
                       0.0000000000E+00  3.3892238193E+00  2.3966971355E+00
                       0.0000000000E+00  3.3892238193E+00  7.1900914065E+00
             xred      0.0000000000E+00  0.0000000000E+00  0.0000000000E+00
                       5.0000000000E-01  5.0000000000E-01  5.0000000000E-01
                       5.0000000000E-01  0.0000000000E+00  2.5000000000E-01
                       5.0000000000E-01  0.0000000000E+00  7.5000000000E-01
                       0.0000000000E+00  5.0000000000E-01  2.5000000000E-01
                       0.0000000000E+00  5.0000000000E-01  7.5000000000E-01
            znucl       72.00000   40.00000    8.00000
 
================================================================================
 
 chkinp: Checking input parameters for consistency, jdtset=   1.
 
 chkinp: Checking input parameters for consistency, jdtset=   2.
 
 chkinp: Checking input parameters for consistency, jdtset=   3.
 
================================================================================
== DATASET  1 ==================================================================
-   mpi_nproc: 36, omp_nthreads: -1 (-1 if OMP is not activated)
 

--- !DatasetInfo
iteration_state: {dtset: 1, }
dimensions: {natom: 6, nkpt: 36, mband: 24, nsppol: 1, nspinor: 1, nspden: 1, mpw: 3064, }
cutoff_energies: {ecut:  25.0, pawecutdg:  30.0, }
electrons: {nelect:   4.80000000E+01, charge:   0.00000000E+00, occopt:   1.00000000E+00, tsmear:   1.00000000E-02, }
meta: {optdriver: 0, ionmov: 0, optcell: 0, iscf: 7, paral_kgb: 0, }
...

 Exchange-correlation functional for the present dataset will be:
  GGA: Perdew-Burke-Ernzerhof functional - ixc=11
 Citation for XC functional:
  J.P.Perdew, K.Burke, M.Ernzerhof, PRL 77, 3865 (1996)
 
 Real(R)+Recip(G) space primitive vectors, cartesian coordinates (Bohr,Bohr^-1):
 R(1)=  6.7784476  0.0000000  0.0000000  G(1)=  0.1475264  0.0000000  0.0000000
 R(2)=  0.0000000  6.7784476  0.0000000  G(2)=  0.0000000  0.1475264  0.0000000
 R(3)=  0.0000000  0.0000000  9.5867885  G(3)=  0.0000000  0.0000000  0.1043102
 Unit cell volume ucvol=  4.4048755E+02 bohr^3
 Angles (23,13,12)=  9.00000000E+01  9.00000000E+01  9.00000000E+01 degrees
 
 getcut: wavevector=  0.0000  0.0000  0.0000  ngfft=  36  36  48
         ecut(hartree)=     27.563   => boxcut(ratio)=   2.11857
 
--- Pseudopotential description ------------------------------------------------
- pspini: atom type   1  psp file is /workspace/jiahaoz/PACKAGE_INSTALL/abinit-9.4.1/pbe_s_sr/Hf.psp8
- pspatm: opening atomic psp file    /workspace/jiahaoz/PACKAGE_INSTALL/abinit-9.4.1/pbe_s_sr/Hf.psp8
- Hf    ONCVPSP  r_core=  1.72  1.72  1.72  2.43
- 72.00000  12.00000    160625                znucl, zion, pspdat
    8   11    3    4       600   0.00000      pspcod,pspxc,lmax,lloc,mmax,r2well
    5.99000000000000    5.40000000000000    0.00000000000000   rchrg,fchrg,qchrg
     nproj     2     2     2     2
     extension_switch     1
  pspatm : epsatm=   21.98649506
         --- l  ekb(1:nproj) -->
             0    5.812335   -0.521211
             1   -3.038329    2.466565
             2    2.060039    0.471534
             3    9.947446    0.353012
 pspatm: atomic psp has been read  and splines computed
 
- pspini: atom type   2  psp file is /workspace/jiahaoz/PACKAGE_INSTALL/abinit-9.4.1/pbe_s_sr/Zr.psp8
- pspatm: opening atomic psp file    /workspace/jiahaoz/PACKAGE_INSTALL/abinit-9.4.1/pbe_s_sr/Zr.psp8
- Zr    ONCVPSP  r_core=  1.57  1.57  1.51
- 40.00000  12.00000    150708                znucl, zion, pspdat
    8   11    2    4       600   0.00000      pspcod,pspxc,lmax,lloc,mmax,r2well
    5.99000000000000    5.00000000000000    0.00000000000000   rchrg,fchrg,qchrg
     nproj     2     2     2
     extension_switch     1
  pspatm : epsatm=   18.79952966
         --- l  ekb(1:nproj) -->
             0   10.640382    0.896979
             1    5.578784    0.693718
             2    3.567950    0.580498
 pspatm: atomic psp has been read  and splines computed
 
- pspini: atom type   3  psp file is /workspace/jiahaoz/PACKAGE_INSTALL/abinit-9.4.1/pbe_s_sr/O.psp8
- pspatm: opening atomic psp file    /workspace/jiahaoz/PACKAGE_INSTALL/abinit-9.4.1/pbe_s_sr/O.psp8
- O     ONCVPSP  r_core=  1.36  1.46  1.26
-  8.00000   6.00000    151103                znucl, zion, pspdat
    8   11    2    4       600   0.00000      pspcod,pspxc,lmax,lloc,mmax,r2well
    5.99000000000000    4.00000000000000    0.00000000000000   rchrg,fchrg,qchrg
     nproj     2     2     1
     extension_switch     1
  pspatm : epsatm=    6.19401560
         --- l  ekb(1:nproj) -->
             0    5.257212    0.704241
             1   -5.135443   -1.451781
             2   -4.371486
 pspatm: atomic psp has been read  and splines computed
 
   3.14698018E+03                                ecore*ucvol(ha*bohr**3)
--------------------------------------------------------------------------------
 
_setup2: Arith. and geom. avg. npw (full set) are    3045.047    3044.986
 
================================================================================

--- !BeginCycle
iteration_state: {dtset: 1, }
solver: {iscf: 7, nstep: 100, nline: 4, wfoptalg: 0, }
tolerances: {toldfe: 1.00E-13, }
...
 
     iter   Etot(hartree)      deltaE(h)  residm     vres2
 ETOT  1  -172.92193233764    -1.729E+02 2.935E-01 8.139E+02
 ETOT  2  -173.12152078675    -1.996E-01 4.240E-02 7.395E+02
 ETOT  3  -173.48833800546    -3.668E-01 1.262E-01 5.571E+01
 ETOT  4  -173.51159790666    -2.326E-02 2.539E-03 2.628E+00
 ETOT  5  -173.51254353123    -9.456E-04 3.248E-04 2.656E-01
 ETOT  6  -173.51262328157    -7.975E-05 1.351E-05 2.135E-02
 ETOT  7  -173.51262756282    -4.281E-06 1.558E-06 5.168E-04
 ETOT  8  -173.51262779338    -2.306E-07 1.151E-07 2.854E-05
 ETOT  9  -173.51262780218    -8.800E-09 2.151E-08 1.590E-06
 ETOT 10  -173.51262780281    -6.241E-10 1.767E-09 3.139E-08
 ETOT 11  -173.51262780287    -6.193E-11 3.514E-10 3.357E-09
 ETOT 12  -173.51262780288    -8.555E-12 3.022E-11 2.750E-10
 ETOT 13  -173.51262780288    -8.811E-13 6.177E-12 1.064E-11
 ETOT 14  -173.51262780288     1.222E-12 5.540E-13 7.680E-14
 ETOT 15  -173.51262780287     5.684E-13 1.156E-13 4.520E-14
 ETOT 16  -173.51262780287    -2.842E-14 1.067E-14 1.412E-15
 ETOT 17  -173.51262780287    -1.137E-13 2.264E-15 3.266E-17
 ETOT 18  -173.51262780288    -1.791E-12 2.128E-16 2.415E-17
 ETOT 19  -173.51262780288     9.948E-13 4.562E-17 2.914E-18
 ETOT 20  -173.51262780287     8.527E-13 4.337E-18 2.227E-19
 ETOT 21  -173.51262780287     1.421E-13 9.354E-19 3.692E-21
 ETOT 22  -173.51262780287     5.684E-14 8.952E-20 2.110E-22
 ETOT 23  -173.51262780287    -2.842E-13 1.937E-20 2.747E-23
 ETOT 24  -173.51262780287     3.126E-13 1.862E-21 5.081E-23
 ETOT 25  -173.51262780287     0.000E+00 4.034E-22 1.575E-23
 ETOT 26  -173.51262780287     0.000E+00 3.888E-23 1.401E-23
 
 At SCF step   26, etot is converged : 
  for the second time, diff in etot=  0.000E+00 < toldfe=  1.000E-13
 
 Cartesian components of stress tensor (hartree/bohr^3)
  sigma(1 1)= -1.64605336E-04  sigma(3 2)=  0.00000000E+00
  sigma(2 2)= -1.64605336E-04  sigma(3 1)=  0.00000000E+00
  sigma(3 3)= -1.45389139E-04  sigma(2 1)=  0.00000000E+00
 

--- !ResultsGS
iteration_state: {dtset: 1, }
comment   : Summary of ground state results
lattice_vectors:
- [  6.7784476,   0.0000000,   0.0000000, ]
- [  0.0000000,   6.7784476,   0.0000000, ]
- [  0.0000000,   0.0000000,   9.5867885, ]
lattice_lengths: [   6.77845,    6.77845,    9.58679, ]
lattice_angles: [ 90.000,  90.000,  90.000, ] # degrees, (23, 13, 12)
lattice_volume:   4.4048755E+02
convergence: {deltae:  0.000E+00, res2:  1.401E-23, residm:  3.888E-23, diffor: null, }
etotal    :  -1.73512628E+02
entropy   :   0.00000000E+00
fermie    :   3.07352469E-01
cartesian_stress_tensor: # hartree/bohr^3
- [ -1.64605336E-04,   0.00000000E+00,   0.00000000E+00, ]
- [  0.00000000E+00,  -1.64605336E-04,   0.00000000E+00, ]
- [  0.00000000E+00,   0.00000000E+00,  -1.45389139E-04, ]
pressure_GPa:   4.6544E+00
xred      :
- [  0.0000E+00,   0.0000E+00,   0.0000E+00, Hf]
- [  5.0000E-01,   5.0000E-01,   5.0000E-01, Zr]
- [  5.0000E-01,   0.0000E+00,   2.5000E-01,  O]
- [  5.0000E-01,   0.0000E+00,   7.5000E-01,  O]
- [  0.0000E+00,   5.0000E-01,   2.5000E-01,  O]
- [  0.0000E+00,   5.0000E-01,   7.5000E-01,  O]
cartesian_forces: # hartree/bohr
- [  0.00000000E+00,   0.00000000E+00,   1.44560290E-19, ]
- [  0.00000000E+00,   0.00000000E+00,   1.44560290E-19, ]
- [  0.00000000E+00,   0.00000000E+00,  -3.57359329E-03, ]
- [  0.00000000E+00,   0.00000000E+00,   3.57359329E-03, ]
- [  0.00000000E+00,   0.00000000E+00,  -3.57359329E-03, ]
- [  0.00000000E+00,   0.00000000E+00,   3.57359329E-03, ]
force_length_stats: {min:   1.44560290E-19, max:   3.57359329E-03, mean:   2.38239553E-03, }
...

 Integrated electronic density in atomic spheres:
 ------------------------------------------------
 Atom  Sphere_radius  Integrated_density
    1        2.00000          8.25853061
    2        2.00000          8.21597748
    3        2.00000          6.33667307
    4        2.00000          6.33667307
    5        2.00000          6.33667307
    6        2.00000          6.33667307
================================================================================
 
 ----iterations are completed or convergence reached----
 
 Mean square residual over all n,k,spin=   45.392E-27; max=  38.878E-24
 reduced coordinates (array xred) for    6 atoms
       0.000000000000      0.000000000000      0.000000000000
       0.500000000000      0.500000000000      0.500000000000
       0.500000000000      0.000000000000      0.250000000000
       0.500000000000      0.000000000000      0.750000000000
       0.000000000000      0.500000000000      0.250000000000
       0.000000000000      0.500000000000      0.750000000000
 rms dE/dt=  1.6150E-02; max dE/dt=  3.4259E-02; dE/dt below (all hartree)
    1       0.000000000000      0.000000000000      0.000000000000
    2       0.000000000000      0.000000000000      0.000000000000
    3       0.000000000000      0.000000000000      0.034259283246
    4       0.000000000000      0.000000000000     -0.034259283246
    5       0.000000000000      0.000000000000      0.034259283246
    6       0.000000000000      0.000000000000     -0.034259283246
 
 cartesian coordinates (angstrom) at end:
    1      0.00000000000000     0.00000000000000     0.00000000000000
    2      1.79350000000000     1.79350000000000     2.53655500000000
    3      1.79350000000000     0.00000000000000     1.26827750000000
    4      1.79350000000000     0.00000000000000     3.80483250000000
    5      0.00000000000000     1.79350000000000     1.26827750000000
    6      0.00000000000000     1.79350000000000     3.80483250000000
 
 cartesian forces (hartree/bohr) at end:
    1      0.00000000000000     0.00000000000000     0.00000000000000
    2      0.00000000000000     0.00000000000000     0.00000000000000
    3      0.00000000000000     0.00000000000000    -0.00357359329416
    4      0.00000000000000     0.00000000000000     0.00357359329416
    5      0.00000000000000     0.00000000000000    -0.00357359329416
    6      0.00000000000000     0.00000000000000     0.00357359329416
 frms,max,avg= 1.6846080E-03 3.5735933E-03   0.000E+00  0.000E+00  0.000E+00 h/b
 
 cartesian forces (eV/Angstrom) at end:
    1      0.00000000000000     0.00000000000000     0.00000000000000
    2      0.00000000000000     0.00000000000000     0.00000000000000
    3      0.00000000000000     0.00000000000000    -0.18376154019576
    4      0.00000000000000     0.00000000000000     0.18376154019576
    5      0.00000000000000     0.00000000000000    -0.18376154019576
    6      0.00000000000000     0.00000000000000     0.18376154019576
 frms,max,avg= 8.6626021E-02 1.8376154E-01   0.000E+00  0.000E+00  0.000E+00 e/A
 length scales=  6.778447638661  6.778447638661  9.586788542003 bohr
              =  3.587000000000  3.587000000000  5.073110000000 angstroms
 Fermi (or HOMO) energy (hartree) =   0.30735   Average Vxc (hartree)=  -0.44446
 Eigenvalues (hartree) for nkpt=  36  k points:
 kpt#   1, nband= 24, wtk=  0.01563, kpt=  0.0000  0.0000  0.0000 (reduced coord)
  -1.93838   -1.46024   -0.78954   -0.78247   -0.78247   -0.65959   -0.64946   -0.64946
  -0.37535   -0.31917   -0.29606   -0.27268    0.07797    0.11031    0.11031    0.11031
   0.18406    0.18406    0.24968    0.24968    0.28648    0.28655    0.28655    0.30579
 prteigrs : prtvol=0 or 1, do not print more k-points.
 

--- !EnergyTerms
iteration_state     : {dtset: 1, }
comment             : Components of total free energy in Hartree
kinetic             :  7.28467921358305E+01
hartree             :  2.71304386690196E+01
xc                  : -4.11786249193269E+01
Ewald energy        : -1.35582860323268E+02
psp_core            :  7.14431128015851E+00
local_psp           : -1.01963747029030E+02
non_local_psp       : -1.90893761625853E+00
total_energy        : -1.73512627802875E+02
total_energy_eV     : -4.72151871970133E+03
band_energy         : -1.31353207519686E+01
...

 
 Cartesian components of stress tensor (hartree/bohr^3)
  sigma(1 1)= -1.64605336E-04  sigma(3 2)=  0.00000000E+00
  sigma(2 2)= -1.64605336E-04  sigma(3 1)=  0.00000000E+00
  sigma(3 3)= -1.45389139E-04  sigma(2 1)=  0.00000000E+00
 
-Cartesian components of stress tensor (GPa)         [Pressure=  4.6544E+00 GPa]
- sigma(1 1)= -4.84285536E+00  sigma(3 2)=  0.00000000E+00
- sigma(2 2)= -4.84285536E+00  sigma(3 1)=  0.00000000E+00
- sigma(3 3)= -4.27749544E+00  sigma(2 1)=  0.00000000E+00
 
================================================================================
== DATASET  2 ==================================================================
-   mpi_nproc: 36, omp_nthreads: -1 (-1 if OMP is not activated)
 

--- !DatasetInfo
iteration_state: {dtset: 2, }
dimensions: {natom: 6, nkpt: 36, mband: 24, nsppol: 1, nspinor: 1, nspden: 1, mpw: 3080, }
cutoff_energies: {ecut:  25.0, pawecutdg:  30.0, }
electrons: {nelect:   4.80000000E+01, charge:   0.00000000E+00, occopt:   1.00000000E+00, tsmear:   1.00000000E-02, }
meta: {optdriver: 0, ionmov: 0, optcell: 0, iscf: -2, paral_kgb: 0, }
...

 mkfilename : getwfk/=0, take file _WFK from output of DATASET   1.
 
 mkfilename : getden/=0, take file _DEN from output of DATASET   1.
 
 Exchange-correlation functional for the present dataset will be:
  GGA: Perdew-Burke-Ernzerhof functional - ixc=11
 Citation for XC functional:
  J.P.Perdew, K.Burke, M.Ernzerhof, PRL 77, 3865 (1996)
 
 Real(R)+Recip(G) space primitive vectors, cartesian coordinates (Bohr,Bohr^-1):
 R(1)=  6.7784476  0.0000000  0.0000000  G(1)=  0.1475264  0.0000000  0.0000000
 R(2)=  0.0000000  6.7784476  0.0000000  G(2)=  0.0000000  0.1475264  0.0000000
 R(3)=  0.0000000  0.0000000  9.5867885  G(3)=  0.0000000  0.0000000  0.1043102
 Unit cell volume ucvol=  4.4048755E+02 bohr^3
 Angles (23,13,12)=  9.00000000E+01  9.00000000E+01  9.00000000E+01 degrees
 
 getcut: wavevector=  0.0000  0.0000  0.0000  ngfft=  36  36  48
         ecut(hartree)=     27.563   => boxcut(ratio)=   2.11857
--------------------------------------------------------------------------------
 
-inwffil : will read wavefunctions from disk file o_DS1_WFK.nc
  initberry: for direction 1, nkstr =   4, nstr =     16
  initberry: for direction 2, nkstr =   4, nstr =     16
  initberry: for direction 3, nkstr =   4, nstr =     16
 
================================================================================
 Non-SCF case, kpt    1 (  0.00000  0.00000  0.00000), residuals and eigenvalues=
  8.05E-30  1.47E-29  1.67E-29  6.06E-30  4.85E-30  1.66E-29  3.66E-30  4.08E-30
  6.38E-29  6.95E-29  6.39E-29  5.47E-29  1.15E-28  6.50E-29  6.85E-29  1.12E-28
  5.97E-29  5.93E-29  6.35E-29  6.22E-29  2.76E-28  4.45E-27  4.33E-28  1.34E-25
 -1.9384E+00 -1.4602E+00 -7.8954E-01 -7.8247E-01 -7.8247E-01 -6.5959E-01
 -6.4946E-01 -6.4946E-01 -3.7535E-01 -3.1917E-01 -2.9606E-01 -2.7268E-01
  7.7966E-02  1.1031E-01  1.1031E-01  1.1031E-01  1.8406E-01  1.8406E-01
  2.4968E-01  2.4968E-01  2.8648E-01  2.8655E-01  2.8655E-01  3.0579E-01
 prteigrs : prtvol=0 or 1, do not print more k-points.
 
 
 
 Computing the polarization (Berry phase) for reciprocal vector:
  0.25000  0.00000  0.00000 (in reduced coordinates)
  0.03688  0.00000  0.00000 (in cartesian coordinates - atomic units)
 Number of strings:    16
 Number of k points in string:    4
 
 Computing the ddk (Berry phase) for reciprocal vector:
  0.25000  0.00000  0.00000 (in reduced coordinates)
  0.03688  0.00000  0.00000 (in cartesian coordinates - atomic units)
 Mean square residual over all n,k,spin=   0.0000E+00; max=  0.0000E+00
 
 Computing the polarization (Berry phase) for reciprocal vector:
  0.00000  0.25000  0.00000 (in reduced coordinates)
  0.00000  0.03688  0.00000 (in cartesian coordinates - atomic units)
 Number of strings:    16
 Number of k points in string:    4
 
 Computing the ddk (Berry phase) for reciprocal vector:
  0.00000  0.25000  0.00000 (in reduced coordinates)
  0.00000  0.03688  0.00000 (in cartesian coordinates - atomic units)
 Mean square residual over all n,k,spin=   0.0000E+00; max=  0.0000E+00
 
 Computing the polarization (Berry phase) for reciprocal vector:
  0.00000  0.00000  0.25000 (in reduced coordinates)
  0.00000  0.00000  0.02608 (in cartesian coordinates - atomic units)
 Number of strings:    16
 Number of k points in string:    4
 
 Computing the ddk (Berry phase) for reciprocal vector:
  0.00000  0.00000  0.25000 (in reduced coordinates)
  0.00000  0.00000  0.02608 (in cartesian coordinates - atomic units)
 Mean square residual over all n,k,spin=   0.0000E+00; max=  0.0000E+00
 
 Polarization in cartesian coordinates (a.u.):
 (the sum of the electronic and ionic Berry phase has been folded into [-1, 1])
     Electronic berry phase:        0.000000000E+00   0.000000000E+00   0.000000000E+00
     Ionic:                         0.000000000E+00   0.000000000E+00   0.000000000E+00  
     Total:                         0.000000000E+00   0.000000000E+00   0.000000000E+00
 
 Polarization in cartesian coordinates (C/m^2):
 (the sum of the electronic and ionic Berry phase has been folded into [-1, 1])
     Electronic berry phase:        0.000000000E+00   0.000000000E+00   0.000000000E+00
     Ionic:                         0.000000000E+00   0.000000000E+00   0.000000000E+00  
     Total:                         0.000000000E+00   0.000000000E+00   0.000000000E+00

--- !ResultsGS
iteration_state: {dtset: 2, }
comment   : Summary of ground state results
lattice_vectors:
- [  6.7784476,   0.0000000,   0.0000000, ]
- [  0.0000000,   6.7784476,   0.0000000, ]
- [  0.0000000,   0.0000000,   9.5867885, ]
lattice_lengths: [   6.77845,    6.77845,    9.58679, ]
lattice_angles: [ 90.000,  90.000,  90.000, ] # degrees, (23, 13, 12)
lattice_volume:   4.4048755E+02
convergence: {deltae:  0.000E+00, res2:  0.000E+00, residm:  4.453E-27, diffor:  0.000E+00, }
etotal    :  -1.73512628E+02
entropy   :   0.00000000E+00
fermie    :   3.07352469E-01
cartesian_stress_tensor: null
pressure_GPa: null
xred      :
- [  0.0000E+00,   0.0000E+00,   0.0000E+00, Hf]
- [  5.0000E-01,   5.0000E-01,   5.0000E-01, Zr]
- [  5.0000E-01,   0.0000E+00,   2.5000E-01,  O]
- [  5.0000E-01,   0.0000E+00,   7.5000E-01,  O]
- [  0.0000E+00,   5.0000E-01,   2.5000E-01,  O]
- [  0.0000E+00,   5.0000E-01,   7.5000E-01,  O]
cartesian_forces: null
force_length_stats: {min: null, max: null, mean: null, }
...

 Integrated electronic density in atomic spheres:
 ------------------------------------------------
 Atom  Sphere_radius  Integrated_density
    1        2.00000          8.25853061
    2        2.00000          8.21597748
    3        2.00000          6.33667307
    4        2.00000          6.33667307
    5        2.00000          6.33667307
    6        2.00000          6.33667307
================================================================================
 
 ----iterations are completed or convergence reached----
 
 Mean square residual over all n,k,spin=   55.550E-30; max=  44.532E-28
 reduced coordinates (array xred) for    6 atoms
       0.000000000000      0.000000000000      0.000000000000
       0.500000000000      0.500000000000      0.500000000000
       0.500000000000      0.000000000000      0.250000000000
       0.500000000000      0.000000000000      0.750000000000
       0.000000000000      0.500000000000      0.250000000000
       0.000000000000      0.500000000000      0.750000000000
 
 cartesian coordinates (angstrom) at end:
    1      0.00000000000000     0.00000000000000     0.00000000000000
    2      1.79350000000000     1.79350000000000     2.53655500000000
    3      1.79350000000000     0.00000000000000     1.26827750000000
    4      1.79350000000000     0.00000000000000     3.80483250000000
    5      0.00000000000000     1.79350000000000     1.26827750000000
    6      0.00000000000000     1.79350000000000     3.80483250000000
 length scales=  6.778447638661  6.778447638661  9.586788542003 bohr
              =  3.587000000000  3.587000000000  5.073110000000 angstroms
 Eigenvalues (hartree) for nkpt=  36  k points:
 kpt#   1, nband= 24, wtk=  0.01563, kpt=  0.0000  0.0000  0.0000 (reduced coord)
  -1.93838   -1.46024   -0.78954   -0.78247   -0.78247   -0.65959   -0.64946   -0.64946
  -0.37535   -0.31917   -0.29606   -0.27268    0.07797    0.11031    0.11031    0.11031
   0.18406    0.18406    0.24968    0.24968    0.28648    0.28655    0.28655    0.30579
 prteigrs : prtvol=0 or 1, do not print more k-points.
 
 
================================================================================
== DATASET  3 ==================================================================
-   mpi_nproc: 36, omp_nthreads: -1 (-1 if OMP is not activated)
 

--- !DatasetInfo
iteration_state: {dtset: 3, }
dimensions: {natom: 6, nkpt: 36, mband: 24, nsppol: 1, nspinor: 1, nspden: 1, mpw: 3080, }
cutoff_energies: {ecut:  25.0, pawecutdg:  30.0, }
electrons: {nelect:   4.80000000E+01, charge:   0.00000000E+00, occopt:   1.00000000E+00, tsmear:   1.00000000E-02, }
meta: {optdriver: 1, rfelfd: 3, rfphon: 1, rfstrs: 3, }
...

 mkfilename : getwfk/=0, take file _WFK from output of DATASET   2.
 
 mkfilename : getddk/=0, take file _1WF from output of DATASET   2.
 
 Exchange-correlation functional for the present dataset will be:
  GGA: Perdew-Burke-Ernzerhof functional - ixc=11
 Citation for XC functional:
  J.P.Perdew, K.Burke, M.Ernzerhof, PRL 77, 3865 (1996)
 
 Real(R)+Recip(G) space primitive vectors, cartesian coordinates (Bohr,Bohr^-1):
 R(1)=  6.7784476  0.0000000  0.0000000  G(1)=  0.1475264  0.0000000  0.0000000
 R(2)=  0.0000000  6.7784476  0.0000000  G(2)=  0.0000000  0.1475264  0.0000000
 R(3)=  0.0000000  0.0000000  9.5867885  G(3)=  0.0000000  0.0000000  0.1043102
 Unit cell volume ucvol=  4.4048755E+02 bohr^3
 Angles (23,13,12)=  9.00000000E+01  9.00000000E+01  9.00000000E+01 degrees
 
 getcut: wavevector=  0.0000  0.0000  0.0000  ngfft=  36  36  48
         ecut(hartree)=     27.563   => boxcut(ratio)=   2.11857
--------------------------------------------------------------------------------
 
-inwffil : will read wavefunctions from disk file o_DS2_WFK.nc
 symkchk : k-point set has full space-group symmetry.
 
 ==>  initialize data related to q vector <== 
 
 The list of irreducible perturbations for this q vector is:
    1)    idir= 1    ipert=   1
    2)    idir= 3    ipert=   1
    3)    idir= 1    ipert=   2
    4)    idir= 3    ipert=   2
    5)    idir= 1    ipert=   3
    6)    idir= 2    ipert=   3
    7)    idir= 3    ipert=   3
    8)    idir= 1    ipert=   8
    9)    idir= 3    ipert=   8
   10)    idir= 1    ipert=   9
   11)    idir= 2    ipert=   9
   12)    idir= 3    ipert=   9
   13)    idir= 1    ipert=  10
   14)    idir= 2    ipert=  10
   15)    idir= 3    ipert=  10
 
================================================================================
 
 The perturbation idir=   2  ipert=   1 is
 symmetric of a previously calculated perturbation.
 So, its SCF calculation is not needed.
 
 
 The perturbation idir=   2  ipert=   2 is
 symmetric of a previously calculated perturbation.
 So, its SCF calculation is not needed.
 
 
 The perturbation idir=   1  ipert=   4 is
 symmetric of a previously calculated perturbation.
 So, its SCF calculation is not needed.
 
 
 The perturbation idir=   2  ipert=   4 is
 symmetric of a previously calculated perturbation.
 So, its SCF calculation is not needed.
 
 
 The perturbation idir=   3  ipert=   4 is
 symmetric of a previously calculated perturbation.
 So, its SCF calculation is not needed.
 
 
 The perturbation idir=   1  ipert=   5 is
 symmetric of a previously calculated perturbation.
 So, its SCF calculation is not needed.
 
 
 The perturbation idir=   2  ipert=   5 is
 symmetric of a previously calculated perturbation.
 So, its SCF calculation is not needed.
 
 
 The perturbation idir=   3  ipert=   5 is
 symmetric of a previously calculated perturbation.
 So, its SCF calculation is not needed.
 
 
 The perturbation idir=   1  ipert=   6 is
 symmetric of a previously calculated perturbation.
 So, its SCF calculation is not needed.
 
 
 The perturbation idir=   2  ipert=   6 is
 symmetric of a previously calculated perturbation.
 So, its SCF calculation is not needed.
 
 
 The perturbation idir=   3  ipert=   6 is
 symmetric of a previously calculated perturbation.
 So, its SCF calculation is not needed.
 
 
 The perturbation idir=   2  ipert=   8 is
 symmetric of a previously calculated perturbation.
 So, its SCF calculation is not needed.
 
 
--------------------------------------------------------------------------------
 Perturbation wavevector (in red.coord.)   0.000000  0.000000  0.000000
 Perturbation : displacement of atom   1   along direction   1
 Found     4 symmetries that leave the perturbation invariant.
 symkpt : the number of k-points, thanks to the symmetries,
 is reduced to    27 .
 
--------------------------------------------------------------------------------
 
-inwffil : will read wavefunctions from disk file o_DS2_WFK.nc
--------------------------------------------------------------------------------
 
 Initialisation of the first-order wave-functions :
  ireadwf=   0

--- !BeginCycle
iteration_state: {dtset: 3, }
solver: {iscf: 7, nstep: 100, nline: 4, wfoptalg: 0, }
tolerances: {tolvrs: 1.00E-13, }
...
 
     iter   2DEtotal(Ha)        deltaE(Ha) residm    vres2
-ETOT  1   3.4295674279472     -1.629E+03 6.551E+00 3.388E+02
 ETOT  2   2.2099943648100     -1.220E+00 2.166E-02 3.202E+01
 ETOT  3   2.1944874804053     -1.551E-02 6.739E-04 2.339E+00
 ETOT  4   2.1932653715830     -1.222E-03 3.907E-05 9.406E-02
 ETOT  5   2.1932210001755     -4.437E-05 1.550E-06 5.014E-03
 ETOT  6   2.1932187205243     -2.280E-06 1.042E-07 2.124E-04
 ETOT  7   2.1932185511976     -1.693E-07 7.415E-09 6.511E-06
 ETOT  8   2.1932185451019     -6.096E-09 4.597E-10 1.954E-07
 ETOT  9   2.1932185447895     -3.124E-10 4.157E-11 6.995E-09
 ETOT 10   2.1932185447729     -1.660E-11 2.578E-12 2.661E-10
 ETOT 11   2.1932185447718     -1.137E-12 2.561E-13 7.366E-12
 ETOT 12   2.1932185447731      1.364E-12 1.743E-14 4.053E-13
 ETOT 13   2.1932185447802      7.049E-12 1.951E-15 8.048E-15
 
 At SCF step   13       vres2   =  8.05E-15 < tolvrs=  1.00E-13 =>converged.
-open ddk wf file :o_DS2_1WF19.nc
-open ddk wf file :o_DS2_1WF20.nc
-open ddk wf file :o_DS2_1WF21.nc
================================================================================
 
 ----iterations are completed or convergence reached----
 
 Mean square residual over all n,k,spin=   10.657E-18; max=  19.514E-16
 
 Thirteen components of 2nd-order total energy (hartree) are
 1,2,3: 0th-order hamiltonian combined with 1st-order wavefunctions
     kin0=   1.70347302E+03 eigvalue=   3.53094950E+02  local=  -1.26056239E+03
 4,5,6: 1st-order hamiltonian combined with 1st and 0th-order wfs
 loc psp =  -2.28967608E+03  Hartree=   5.57791442E+02     xc=  -1.17475477E+02
 note that "loc psp" includes a xc core correction that could be resolved
 7,8,9: eventually, occupation + non-local contributions
    edocc=   0.00000000E+00     enl0=   3.94380976E+02   enl1=  -9.71728977E+02
 1-9 gives the relaxation energy (to be shifted if some occ is /=2.0)
   erelax=  -1.63070253E+03
 10,11,12 Non-relaxation  contributions : frozen-wavefunctions and Ewald
 fr.local=   9.32118152E+02 fr.nonlo=   4.91417865E+02  Ewald=   1.56189551E+02
 13,14 Frozen wf xc core corrections (1) and (2)
 frxc 1  =  -2.04545760E+02  frxc 2 =   2.57715939E+02
 Resulting in :
 2DEtotal=    0.2193218545E+01 Ha. Also 2DEtotal=    0.596805117109E+02 eV
    (2DErelax=   -1.6307025281E+03 Ha. 2DEnonrelax=    1.6328957466E+03 Ha)
    (  non-var. 2DEtotal :    2.1932185209E+00 Ha)
 
 
--------------------------------------------------------------------------------
 Perturbation wavevector (in red.coord.)   0.000000  0.000000  0.000000
 Perturbation : displacement of atom   1   along direction   3
 Found     8 symmetries that leave the perturbation invariant.
 symkpt : the number of k-points, thanks to the symmetries,
 is reduced to    18 .
 
--------------------------------------------------------------------------------
 
-inwffil : will read wavefunctions from disk file o_DS2_WFK.nc
--------------------------------------------------------------------------------
 
 Initialisation of the first-order wave-functions :
  ireadwf=   0

--- !BeginCycle
iteration_state: {dtset: 3, }
solver: {iscf: 7, nstep: 100, nline: 4, wfoptalg: 0, }
tolerances: {tolvrs: 1.00E-13, }
...
 
     iter   2DEtotal(Ha)        deltaE(Ha) residm    vres2
-ETOT  1   27.815728651133     -3.434E+03 1.347E+01 2.612E+04
 ETOT  2   21.969177836819     -5.847E+00 4.922E-02 9.180E+02
 ETOT  3   22.342583334806      3.734E-01 9.899E-03 3.563E+03
 ETOT  4   21.024566688372     -1.318E+00 2.539E-03 6.456E+01
 ETOT  5   21.008751375506     -1.582E-02 5.651E-04 9.181E-01
 ETOT  6   21.008468081297     -2.833E-04 8.803E-06 2.758E-02
 ETOT  7   21.008443664441     -2.442E-05 7.386E-07 6.060E-04
 ETOT  8   21.008443145004     -5.194E-07 7.438E-08 9.772E-05
 ETOT  9   21.008443109870     -3.513E-08 7.647E-09 1.214E-06
 ETOT 10   21.008443108318     -1.552E-09 6.277E-10 1.891E-07
 ETOT 11   21.008443108120     -1.978E-10 7.240E-11 1.599E-09
 ETOT 12   21.008443108120      0.000E+00 6.332E-12 6.458E-11
 ETOT 13   21.008443108152      3.229E-11 6.446E-13 7.409E-11
 ETOT 14   21.008443108129     -2.319E-11 6.237E-14 2.805E-12
 ETOT 15   21.008443108133      4.093E-12 6.331E-15 1.387E-13
 ETOT 16   21.008443108123     -1.046E-11 5.966E-16 3.451E-14
 
 At SCF step   16       vres2   =  3.45E-14 < tolvrs=  1.00E-13 =>converged.
-open ddk wf file :o_DS2_1WF19.nc
-open ddk wf file :o_DS2_1WF20.nc
-open ddk wf file :o_DS2_1WF21.nc
================================================================================
 
 ----iterations are completed or convergence reached----
 
 Mean square residual over all n,k,spin=   20.772E-19; max=  59.657E-17
 
 Thirteen components of 2nd-order total energy (hartree) are
 1,2,3: 0th-order hamiltonian combined with 1st-order wavefunctions
     kin0=   3.49875856E+03 eigvalue=   7.22137063E+02  local=  -2.59779408E+03
 4,5,6: 1st-order hamiltonian combined with 1st and 0th-order wfs
 loc psp =  -4.93524562E+03  Hartree=   1.25421521E+03     xc=  -2.37908063E+02
 note that "loc psp" includes a xc core correction that could be resolved
 7,8,9: eventually, occupation + non-local contributions
    edocc=   0.00000000E+00     enl0=   8.01642033E+02   enl1=  -1.94685582E+03
 1-9 gives the relaxation energy (to be shifted if some occ is /=2.0)
   erelax=  -3.44105072E+03
 10,11,12 Non-relaxation  contributions : frozen-wavefunctions and Ewald
 fr.local=   1.86494225E+03 fr.nonlo=   9.82872649E+02  Ewald=   5.07838991E+02
 13,14 Frozen wf xc core corrections (1) and (2)
 frxc 1  =  -4.09151194E+02  frxc 2 =   5.15556470E+02
 Resulting in :
 2DEtotal=    0.2100844311E+02 Ha. Also 2DEtotal=    0.571668809716E+03 eV
    (2DErelax=   -3.4410507202E+03 Ha. 2DEnonrelax=    3.4620591633E+03 Ha)
    (  non-var. 2DEtotal :    2.1008443064E+01 Ha)
 
 
--------------------------------------------------------------------------------
 Perturbation wavevector (in red.coord.)   0.000000  0.000000  0.000000
 Perturbation : displacement of atom   2   along direction   1
 Found     4 symmetries that leave the perturbation invariant.
 symkpt : the number of k-points, thanks to the symmetries,
 is reduced to    27 .
 
--------------------------------------------------------------------------------
 
-inwffil : will read wavefunctions from disk file o_DS2_WFK.nc
--------------------------------------------------------------------------------
 
 Initialisation of the first-order wave-functions :
  ireadwf=   0

--- !BeginCycle
iteration_state: {dtset: 3, }
solver: {iscf: 7, nstep: 100, nline: 4, wfoptalg: 0, }
tolerances: {tolvrs: 1.00E-13, }
...
 
     iter   2DEtotal(Ha)        deltaE(Ha) residm    vres2
-ETOT  1   4.7092325033993     -1.930E+03 9.195E+00 4.927E+02
 ETOT  2   2.5196833740399     -2.190E+00 3.420E-02 2.315E+02
 ETOT  3   2.3730239562360     -1.467E-01 9.329E-04 5.760E+00
 ETOT  4   2.3715637090631     -1.460E-03 1.179E-04 2.324E-01
 ETOT  5   2.3714725257621     -9.118E-05 3.932E-06 4.458E-03
 ETOT  6   2.3714689753035     -3.550E-06 7.189E-07 4.127E-04
 ETOT  7   2.3714686110252     -3.643E-07 2.189E-08 3.753E-06
 ETOT  8   2.3714685955526     -1.547E-08 3.970E-09 4.080E-08
 ETOT  9   2.3714685944944     -1.058E-09 1.271E-10 6.468E-09
 ETOT 10   2.3714685944105     -8.390E-11 2.291E-11 3.331E-10
 ETOT 11   2.3714685943919     -1.864E-11 8.452E-13 6.475E-12
 ETOT 12   2.3714685943974      5.457E-12 1.534E-13 1.241E-12
 ETOT 13   2.3714685944090      1.160E-11 5.677E-15 5.479E-15
 
 At SCF step   13       vres2   =  5.48E-15 < tolvrs=  1.00E-13 =>converged.
-open ddk wf file :o_DS2_1WF19.nc
-open ddk wf file :o_DS2_1WF20.nc
-open ddk wf file :o_DS2_1WF21.nc
================================================================================
 
 ----iterations are completed or convergence reached----
 
 Mean square residual over all n,k,spin=   40.169E-18; max=  56.766E-16
 
 Thirteen components of 2nd-order total energy (hartree) are
 1,2,3: 0th-order hamiltonian combined with 1st-order wavefunctions
     kin0=   1.97291174E+03 eigvalue=   3.06981766E+02  local=  -1.63923653E+03
 4,5,6: 1st-order hamiltonian combined with 1st and 0th-order wfs
 loc psp =  -2.01797413E+03  Hartree=   5.25611263E+02     xc=  -1.37504675E+02
 note that "loc psp" includes a xc core correction that could be resolved
 7,8,9: eventually, occupation + non-local contributions
    edocc=   0.00000000E+00     enl0=   9.03354950E+02   enl1=  -1.84626289E+03
 1-9 gives the relaxation energy (to be shifted if some occ is /=2.0)
   erelax=  -1.93211851E+03
 10,11,12 Non-relaxation  contributions : frozen-wavefunctions and Ewald
 fr.local=   8.73182429E+02 fr.nonlo=   9.24693297E+02  Ewald=   1.56189551E+02
 13,14 Frozen wf xc core corrections (1) and (2)
 frxc 1  =  -1.65196984E+02  frxc 2 =   1.45621686E+02
 Resulting in :
 2DEtotal=    0.2371468594E+01 Ha. Also 2DEtotal=    0.645309422344E+02 eV
    (2DErelax=   -1.9321185099E+03 Ha. 2DEnonrelax=    1.9344899785E+03 Ha)
    (  non-var. 2DEtotal :    2.3714686802E+00 Ha)
 
 
--------------------------------------------------------------------------------
 Perturbation wavevector (in red.coord.)   0.000000  0.000000  0.000000
 Perturbation : displacement of atom   2   along direction   3
 Found     8 symmetries that leave the perturbation invariant.
 symkpt : the number of k-points, thanks to the symmetries,
 is reduced to    18 .
 
--------------------------------------------------------------------------------
 
-inwffil : will read wavefunctions from disk file o_DS2_WFK.nc
--------------------------------------------------------------------------------
 
 Initialisation of the first-order wave-functions :
  ireadwf=   0

--- !BeginCycle
iteration_state: {dtset: 3, }
solver: {iscf: 7, nstep: 100, nline: 4, wfoptalg: 0, }
tolerances: {tolvrs: 1.00E-13, }
...
 
     iter   2DEtotal(Ha)        deltaE(Ha) residm    vres2
-ETOT  1   30.913617945299     -4.034E+03 1.813E+01 2.385E+04
 ETOT  2   22.960142147762     -7.953E+00 7.989E-02 5.649E+02
 ETOT  3   22.834076090311     -1.261E-01 5.100E-03 1.377E+03
 ETOT  4   22.510647519737     -3.234E-01 1.487E-03 7.482E+01
 ETOT  5   22.438005899504     -7.264E-02 2.007E-04 6.192E+00
 ETOT  6   22.436691096606     -1.315E-03 1.358E-05 2.775E-01
 ETOT  7   22.436628342519     -6.275E-05 6.533E-07 6.038E-04
 ETOT  8   22.436627921168     -4.214E-07 3.540E-08 4.202E-05
 ETOT  9   22.436627889500     -3.167E-08 2.629E-09 1.354E-06
 ETOT 10   22.436627888108     -1.392E-09 2.449E-10 9.384E-08
 ETOT 11   22.436627888048     -5.957E-11 1.751E-11 1.207E-08
 ETOT 12   22.436627888022     -2.638E-11 1.689E-12 1.227E-09
 ETOT 13   22.436627888034      1.228E-11 1.672E-13 4.937E-12
 ETOT 14   22.436627888003     -3.092E-11 1.654E-14 9.139E-13
 ETOT 15   22.436627888014      1.091E-11 1.461E-15 2.368E-13
 ETOT 16   22.436627888028      1.410E-11 1.661E-16 1.637E-15
 
 At SCF step   16       vres2   =  1.64E-15 < tolvrs=  1.00E-13 =>converged.
-open ddk wf file :o_DS2_1WF19.nc
-open ddk wf file :o_DS2_1WF20.nc
-open ddk wf file :o_DS2_1WF21.nc
================================================================================
 
 ----iterations are completed or convergence reached----
 
 Mean square residual over all n,k,spin=   96.555E-20; max=  16.614E-17
 
 Thirteen components of 2nd-order total energy (hartree) are
 1,2,3: 0th-order hamiltonian combined with 1st-order wavefunctions
     kin0=   4.03636480E+03 eigvalue=   6.26508928E+02  local=  -3.35663738E+03
 4,5,6: 1st-order hamiltonian combined with 1st and 0th-order wfs
 loc psp =  -4.40509289E+03  Hartree=   1.18898161E+03     xc=  -2.78665378E+02
 note that "loc psp" includes a xc core correction that could be resolved
 7,8,9: eventually, occupation + non-local contributions
    edocc=   0.00000000E+00     enl0=   1.82549958E+03   enl1=  -3.67901145E+03
 1-9 gives the relaxation energy (to be shifted if some occ is /=2.0)
   erelax=  -4.04205217E+03
 10,11,12 Non-relaxation  contributions : frozen-wavefunctions and Ewald
 fr.local=   1.74591615E+03 fr.nonlo=   1.84992516E+03  Ewald=   5.07838991E+02
 13,14 Frozen wf xc core corrections (1) and (2)
 frxc 1  =  -3.30439834E+02  frxc 2 =   2.91248325E+02
 Resulting in :
 2DEtotal=    0.2243662789E+02 Ha. Also 2DEtotal=    0.610531693985E+03 eV
    (2DErelax=   -4.0420521668E+03 Ha. 2DEnonrelax=    4.0644887947E+03 Ha)
    (  non-var. 2DEtotal :    2.2436627897E+01 Ha)
 
 
--------------------------------------------------------------------------------
 Perturbation wavevector (in red.coord.)   0.000000  0.000000  0.000000
 Perturbation : displacement of atom   3   along direction   1
 Found     2 symmetries that leave the perturbation invariant.
 symkpt : the number of k-points, thanks to the symmetries,
 is reduced to    30 .
 
--------------------------------------------------------------------------------
 
-inwffil : will read wavefunctions from disk file o_DS2_WFK.nc
--------------------------------------------------------------------------------
 
 Initialisation of the first-order wave-functions :
  ireadwf=   0

--- !BeginCycle
iteration_state: {dtset: 3, }
solver: {iscf: 7, nstep: 100, nline: 4, wfoptalg: 0, }
tolerances: {tolvrs: 1.00E-13, }
...
 
     iter   2DEtotal(Ha)        deltaE(Ha) residm    vres2
-ETOT  1   9.9505508183588     -2.507E+03 2.193E+00 4.382E+03
 ETOT  2   5.3772043544764     -4.573E+00 2.311E-01 1.256E+02
 ETOT  3   5.2386521576509     -1.386E-01 2.846E-03 1.037E+01
 ETOT  4   5.2306737588815     -7.978E-03 2.583E-04 1.737E-01
 ETOT  5   5.2304067525115     -2.670E-04 9.840E-06 1.860E-02
 ETOT  6   5.2303921479315     -1.460E-05 1.040E-06 5.312E-04
 ETOT  7   5.2303912930188     -8.549E-07 6.416E-08 2.397E-05
 ETOT  8   5.2303912425059     -5.051E-08 6.711E-09 2.651E-07
 ETOT  9   5.2303912392113     -3.295E-09 5.341E-10 6.717E-09
 ETOT 10   5.2303912389548     -2.565E-10 6.033E-11 7.671E-10
 ETOT 11   5.2303912389366     -1.819E-11 5.020E-12 2.979E-11
 ETOT 12   5.2303912389352     -1.364E-12 6.123E-13 2.877E-12
 ETOT 13   5.2303912389261     -9.095E-12 4.922E-14 5.467E-14
 
 At SCF step   13       vres2   =  5.47E-14 < tolvrs=  1.00E-13 =>converged.
-open ddk wf file :o_DS2_1WF19.nc
-open ddk wf file :o_DS2_1WF20.nc
-open ddk wf file :o_DS2_1WF21.nc
================================================================================
 
 ----iterations are completed or convergence reached----
 
 Mean square residual over all n,k,spin=   24.556E-17; max=  49.223E-15
 
 Thirteen components of 2nd-order total energy (hartree) are
 1,2,3: 0th-order hamiltonian combined with 1st-order wavefunctions
     kin0=   2.97515927E+03 eigvalue=  -1.15261385E+02  local=  -1.01008672E+03
 4,5,6: 1st-order hamiltonian combined with 1st and 0th-order wfs
 loc psp =  -1.59150513E+03  Hartree=   4.55821513E+02     xc=  -1.16606352E+02
 note that "loc psp" includes a xc core correction that could be resolved
 7,8,9: eventually, occupation + non-local contributions
    edocc=   0.00000000E+00     enl0=   3.22439098E+02   enl1=  -3.43142571E+03
 1-9 gives the relaxation energy (to be shifted if some occ is /=2.0)
   erelax=  -2.51146542E+03
 10,11,12 Non-relaxation  contributions : frozen-wavefunctions and Ewald
 fr.local=   7.19314854E+02 fr.nonlo=   1.71899006E+03  Ewald=   1.01968927E+02
 13,14 Frozen wf xc core corrections (1) and (2)
 frxc 1  =  -1.05480156E+02  frxc 2 =   8.19021317E+01
 Resulting in :
 2DEtotal=    0.5230391239E+01 Ha. Also 2DEtotal=    0.142326183740E+03 eV
    (2DErelax=   -2.5114654222E+03 Ha. 2DEnonrelax=    2.5166958134E+03 Ha)
    (  non-var. 2DEtotal :    5.2303914161E+00 Ha)
 
 
--------------------------------------------------------------------------------
 Perturbation wavevector (in red.coord.)   0.000000  0.000000  0.000000
 Perturbation : displacement of atom   3   along direction   2
 Found     2 symmetries that leave the perturbation invariant.
 symkpt : the number of k-points, thanks to the symmetries,
 is reduced to    30 .
 
--------------------------------------------------------------------------------
 
-inwffil : will read wavefunctions from disk file o_DS2_WFK.nc
--------------------------------------------------------------------------------
 
 Initialisation of the first-order wave-functions :
  ireadwf=   0

--- !BeginCycle
iteration_state: {dtset: 3, }
solver: {iscf: 7, nstep: 100, nline: 4, wfoptalg: 0, }
tolerances: {tolvrs: 1.00E-13, }
...
 
     iter   2DEtotal(Ha)        deltaE(Ha) residm    vres2
-ETOT  1   10.239842601100     -2.511E+03 2.119E+00 4.330E+03
 ETOT  2   5.6756107030878     -4.564E+00 2.312E-01 1.144E+02
 ETOT  3   5.5384545563752     -1.372E-01 4.832E-03 1.040E+01
 ETOT  4   5.5299438857428     -8.511E-03 5.829E-04 1.537E-01
 ETOT  5   5.5295954297676     -3.485E-04 2.928E-05 1.630E-02
 ETOT  6   5.5295728751489     -2.255E-05 5.662E-06 2.960E-04
 ETOT  7   5.5295712326492     -1.642E-06 3.733E-07 2.033E-05
 ETOT  8   5.5295710949372     -1.377E-07 7.163E-08 4.055E-07
 ETOT  9   5.5295710832684     -1.167E-08 4.920E-09 3.569E-08
 ETOT 10   5.5295710821656     -1.103E-09 8.552E-10 2.218E-09
 ETOT 11   5.5295710820592     -1.064E-10 5.920E-11 1.194E-10
 ETOT 12   5.5295710820551     -4.093E-12 1.005E-11 1.351E-11
 ETOT 13   5.5295710820524     -2.728E-12 7.035E-13 1.043E-13
 ETOT 14   5.5295710820533      9.095E-13 1.185E-13 1.218E-13
 ETOT 15   5.5295710820465     -6.821E-12 8.311E-15 4.816E-16
 
 At SCF step   15       vres2   =  4.82E-16 < tolvrs=  1.00E-13 =>converged.
-open ddk wf file :o_DS2_1WF19.nc
-open ddk wf file :o_DS2_1WF20.nc
-open ddk wf file :o_DS2_1WF21.nc
================================================================================
 
 ----iterations are completed or convergence reached----
 
 Mean square residual over all n,k,spin=   26.457E-18; max=  83.110E-16
 
 Thirteen components of 2nd-order total energy (hartree) are
 1,2,3: 0th-order hamiltonian combined with 1st-order wavefunctions
     kin0=   2.98155370E+03 eigvalue=  -1.15676432E+02  local=  -1.01454550E+03
 4,5,6: 1st-order hamiltonian combined with 1st and 0th-order wfs
 loc psp =  -1.59191768E+03  Hartree=   4.55759779E+02     xc=  -1.16785432E+02
 note that "loc psp" includes a xc core correction that could be resolved
 7,8,9: eventually, occupation + non-local contributions
    edocc=   0.00000000E+00     enl0=   3.24961593E+02   enl1=  -3.43861773E+03
 1-9 gives the relaxation energy (to be shifted if some occ is /=2.0)
   erelax=  -2.51526771E+03
 10,11,12 Non-relaxation  contributions : frozen-wavefunctions and Ewald
 fr.local=   7.19011882E+02 fr.nonlo=   1.72351086E+03  Ewald=   1.01968927E+02
 13,14 Frozen wf xc core corrections (1) and (2)
 frxc 1  =  -1.05449059E+02  frxc 2 =   8.17546671E+01
 Resulting in :
 2DEtotal=    0.5529571082E+01 Ha. Also 2DEtotal=    0.150467281295E+03 eV
    (2DErelax=   -2.5152677057E+03 Ha. 2DEnonrelax=    2.5207972768E+03 Ha)
    (  non-var. 2DEtotal :    5.5295711276E+00 Ha)
 
 
--------------------------------------------------------------------------------
 Perturbation wavevector (in red.coord.)   0.000000  0.000000  0.000000
 Perturbation : displacement of atom   3   along direction   3
 Found     4 symmetries that leave the perturbation invariant.
 symkpt : the number of k-points, thanks to the symmetries,
 is reduced to    27 .
 
--------------------------------------------------------------------------------
 
-inwffil : will read wavefunctions from disk file o_DS2_WFK.nc
--------------------------------------------------------------------------------
 
 Initialisation of the first-order wave-functions :
  ireadwf=   0

--- !BeginCycle
iteration_state: {dtset: 3, }
solver: {iscf: 7, nstep: 100, nline: 4, wfoptalg: 0, }
tolerances: {tolvrs: 1.00E-13, }
...
 
     iter   2DEtotal(Ha)        deltaE(Ha) residm    vres2
-ETOT  1   21.664294715738     -5.065E+03 3.987E+00 2.004E+04
 ETOT  2   11.304319293187     -1.036E+01 8.828E-01 1.610E+03
 ETOT  3   10.801002842220     -5.033E-01 2.222E-02 7.204E+01
 ETOT  4   10.775546524982     -2.546E-02 1.435E-03 2.362E+01
 ETOT  5   10.767645524822     -7.901E-03 3.499E-04 1.156E+01
 ETOT  6   10.761299334979     -6.346E-03 1.930E-05 6.184E-01
 ETOT  7   10.761275969944     -2.337E-05 3.127E-06 3.167E-01
 ETOT  8   10.761060802320     -2.152E-04 4.295E-07 1.220E-02
 ETOT  9   10.761055472635     -5.330E-06 5.921E-08 5.391E-04
 ETOT 10   10.761055292552     -1.801E-07 8.066E-09 1.653E-04
 ETOT 11   10.761055197406     -9.515E-08 1.560E-09 1.492E-05
 ETOT 12   10.761055186362     -1.104E-08 3.608E-10 2.242E-07
 ETOT 13   10.761055186225     -1.364E-10 1.874E-11 1.413E-07
 ETOT 14   10.761055186177     -4.820E-11 3.259E-12 6.480E-09
 ETOT 15   10.761055186181      3.638E-12 2.986E-13 3.573E-10
 ETOT 16   10.761055186177     -3.638E-12 4.854E-14 9.220E-11
 ETOT 17   10.761055186181      3.638E-12 5.269E-15 1.373E-11
 ETOT 18   10.761055186181      0.000E+00 9.526E-16 1.150E-12
 ETOT 19   10.761055186183      1.819E-12 8.518E-17 7.627E-14
 
 At SCF step   19       vres2   =  7.63E-14 < tolvrs=  1.00E-13 =>converged.
-open ddk wf file :o_DS2_1WF19.nc
-open ddk wf file :o_DS2_1WF20.nc
-open ddk wf file :o_DS2_1WF21.nc
================================================================================
 
 ----iterations are completed or convergence reached----
 
 Mean square residual over all n,k,spin=   35.992E-20; max=  85.182E-18
 
 Thirteen components of 2nd-order total energy (hartree) are
 1,2,3: 0th-order hamiltonian combined with 1st-order wavefunctions
     kin0=   5.95236653E+03 eigvalue=  -2.31130199E+02  local=  -2.02110892E+03
 4,5,6: 1st-order hamiltonian combined with 1st and 0th-order wfs
 loc psp =  -3.28384387E+03  Hartree=   9.62694626E+02     xc=  -2.32905228E+02
 note that "loc psp" includes a xc core correction that could be resolved
 7,8,9: eventually, occupation + non-local contributions
    edocc=   0.00000000E+00     enl0=   6.45686614E+02   enl1=  -6.86736298E+03
 1-9 gives the relaxation energy (to be shifted if some occ is /=2.0)
   erelax=  -5.07560343E+03
 10,11,12 Non-relaxation  contributions : frozen-wavefunctions and Ewald
 fr.local=   1.43851473E+03 fr.nonlo=   3.44298892E+03  Ewald=   2.52800406E+02
 13,14 Frozen wf xc core corrections (1) and (2)
 frxc 1  =  -2.11528632E+02  frxc 2 =   1.63589059E+02
 Resulting in :
 2DEtotal=    0.1076105519E+02 Ha. Also 2DEtotal=    0.292823203410E+03 eV
    (2DErelax=   -5.0756034271E+03 Ha. 2DEnonrelax=    5.0863644823E+03 Ha)
    (  non-var. 2DEtotal :    1.0761055176E+01 Ha)
 
 
--------------------------------------------------------------------------------
 Perturbation wavevector (in red.coord.)   0.000000  0.000000  0.000000
 Perturbation : homogeneous electric field along direction   1
 The set of symmetries contains only one element for this perturbation.
 symkpt : not enough symmetry to change the number of k points.
 
--------------------------------------------------------------------------------
 
-inwffil : will read wavefunctions from disk file o_DS2_WFK.nc
--------------------------------------------------------------------------------
 
 Initialisation of the first-order wave-functions :
  ireadwf=   0
- dfpt_looppert: read the DDK wavefunctions from file: o_DS2_1WF19.nc

--- !BeginCycle
iteration_state: {dtset: 3, }
solver: {iscf: 7, nstep: 100, nline: 4, wfoptalg: 0, }
tolerances: {tolvrs: 1.00E-13, }
...
 
     iter   2DEtotal(Ha)        deltaE(Ha) residm    vres2
-ETOT  1  -113.39488523141     -1.134E+02 1.708E+00 3.867E+03
 ETOT  2  -116.11563040963     -2.721E+00 1.355E-01 1.728E+02
 ETOT  3  -116.26456132305     -1.489E-01 1.976E-03 1.754E+01
 ETOT  4  -116.27532346824     -1.076E-02 1.788E-04 2.593E-01
 ETOT  5  -116.27547467634     -1.512E-04 7.903E-06 1.512E-02
 ETOT  6  -116.27548658545     -1.191E-05 1.058E-06 6.837E-04
 ETOT  7  -116.27548713411     -5.487E-07 4.739E-08 1.743E-05
 ETOT  8  -116.27548716085     -2.674E-08 5.809E-09 4.582E-07
 ETOT  9  -116.27548716270     -1.850E-09 3.209E-10 6.651E-09
 ETOT 10  -116.27548716281     -1.155E-10 4.148E-11 2.983E-10
 ETOT 11  -116.27548716282     -8.896E-12 2.367E-12 7.727E-12
 ETOT 12  -116.27548716282     -4.974E-13 2.999E-13 1.471E-12
 ETOT 13  -116.27548716282     -5.684E-14 1.791E-14 3.474E-14
 
 At SCF step   13       vres2   =  3.47E-14 < tolvrs=  1.00E-13 =>converged.
-open ddk wf file :o_DS2_1WF19.nc
-open ddk wf file :o_DS2_1WF20.nc
-open ddk wf file :o_DS2_1WF21.nc
================================================================================
 
 ----iterations are completed or convergence reached----
 
 Mean square residual over all n,k,spin=   73.198E-18; max=  17.908E-15
 
 Seven components of 2nd-order total energy (hartree) are
 1,2,3: 0th-order hamiltonian combined with 1st-order wavefunctions
     kin0=   6.15945860E+02 eigvalue=  -8.31023378E+01  local=  -4.30445058E+02
 4,5,6: 1st-order hamiltonian combined with 1st and 0th-order wfs
    dotwf=  -2.32550974E+02  Hartree=   1.11369182E+01     xc=  -8.64923850E+00
 7,8,9: eventually, occupation + non-local contributions
    edocc=   0.00000000E+00     enl0=   1.13893428E+01   enl1=   0.00000000E+00
 1-9 gives the relaxation energy (to be shifted if some occ is /=2.0)
   erelax=  -1.16275487E+02
  No Ewald or frozen-wf contrib.: the relaxation energy is the total one
 2DEtotal=   -0.1162754872E+03 Ha. Also 2DEtotal=   -0.316401691470E+04 eV
    (  non-var. 2DEtotal :   -1.1627548710E+02 Ha)
 
--------------------------------------------------------------------------------
 Perturbation wavevector (in red.coord.)   0.000000  0.000000  0.000000
 Perturbation : homogeneous electric field along direction   3
 The set of symmetries contains only one element for this perturbation.
 symkpt : not enough symmetry to change the number of k points.
 
--------------------------------------------------------------------------------
 
-inwffil : will read wavefunctions from disk file o_DS2_WFK.nc
--------------------------------------------------------------------------------
 
 Initialisation of the first-order wave-functions :
  ireadwf=   0
- dfpt_looppert: read the DDK wavefunctions from file: o_DS2_1WF21.nc

--- !BeginCycle
iteration_state: {dtset: 3, }
solver: {iscf: 7, nstep: 100, nline: 4, wfoptalg: 0, }
tolerances: {tolvrs: 1.00E-13, }
...
 
     iter   2DEtotal(Ha)        deltaE(Ha) residm    vres2
-ETOT  1  -61.732922078796     -6.173E+01 1.948E+00 2.502E+03
 ETOT  2  -63.231583119537     -1.499E+00 6.746E-02 9.443E+01
 ETOT  3  -63.296282897168     -6.470E-02 6.090E-03 6.204E+01
 ETOT  4  -63.307943567994     -1.166E-02 1.697E-04 9.229E+00
 ETOT  5  -63.313626066342     -5.682E-03 4.748E-05 3.436E+00
 ETOT  6  -63.314769837224     -1.144E-03 3.962E-06 9.534E-02
 ETOT  7  -63.314792438670     -2.260E-05 3.814E-07 3.888E-04
 ETOT  8  -63.314792759348     -3.207E-07 1.634E-08 5.326E-05
 ETOT  9  -63.314792786374     -2.703E-08 2.238E-09 1.747E-06
 ETOT 10  -63.314792787320     -9.456E-10 1.779E-10 2.367E-08
 ETOT 11  -63.314792787351     -3.102E-11 2.047E-11 4.967E-09
 ETOT 12  -63.314792787356     -4.434E-12 2.044E-12 2.113E-10
 ETOT 13  -63.314792787356     -4.050E-13 2.472E-13 9.341E-11
 ETOT 14  -63.314792787356      7.105E-14 2.467E-14 3.165E-12
 ETOT 15  -63.314792787356     -1.066E-13 2.674E-15 1.463E-13
 ETOT 16  -63.314792787356     -7.105E-15 2.628E-16 1.838E-14
 
 At SCF step   16       vres2   =  1.84E-14 < tolvrs=  1.00E-13 =>converged.
-open ddk wf file :o_DS2_1WF19.nc
-open ddk wf file :o_DS2_1WF20.nc
-open ddk wf file :o_DS2_1WF21.nc
================================================================================
 
 ----iterations are completed or convergence reached----
 
 Mean square residual over all n,k,spin=   62.073E-20; max=  26.285E-17
 
 Seven components of 2nd-order total energy (hartree) are
 1,2,3: 0th-order hamiltonian combined with 1st-order wavefunctions
     kin0=   3.44468362E+02 eigvalue=  -4.74375772E+01  local=  -2.41647599E+02
 4,5,6: 1st-order hamiltonian combined with 1st and 0th-order wfs
    dotwf=  -1.26629586E+02  Hartree=   5.74516545E+00     xc=  -4.45571550E+00
 7,8,9: eventually, occupation + non-local contributions
    edocc=   0.00000000E+00     enl0=   6.64215661E+00   enl1=   0.00000000E+00
 1-9 gives the relaxation energy (to be shifted if some occ is /=2.0)
   erelax=  -6.33147928E+01
  No Ewald or frozen-wf contrib.: the relaxation energy is the total one
 2DEtotal=   -0.6331479279E+02 Ha. Also 2DEtotal=   -0.172288313055E+04 eV
    (  non-var. 2DEtotal :   -6.3314792785E+01 Ha)
 
--------------------------------------------------------------------------------
 Perturbation wavevector (in red.coord.)   0.000000  0.000000  0.000000
 Found     8 symmetries that leave the perturbation invariant.
 symkpt : the number of k-points, thanks to the symmetries,
 is reduced to    27 .
 
--------------------------------------------------------------------------------
 
-inwffil : will read wavefunctions from disk file o_DS2_WFK.nc
--------------------------------------------------------------------------------
 
 Initialisation of the first-order wave-functions :
  ireadwf=   0

--- !BeginCycle
iteration_state: {dtset: 3, }
solver: {iscf: 7, nstep: 100, nline: 4, wfoptalg: 0, }
tolerances: {tolvrs: 1.00E-13, }
...
 
     iter   2DEtotal(Ha)        deltaE(Ha) residm    vres2
-ETOT  1   22.434902074575     -5.075E+02 6.320E+02 3.040E+04
 ETOT  2   14.750054221675     -7.685E+00 1.518E+00 1.420E+04
 ETOT  3   3.4542860505692     -1.130E+01 3.173E-01 3.237E+03
 ETOT  4  0.47079791346869     -2.983E+00 1.858E-02 1.035E+01
 ETOT  5  0.46436642471713     -6.431E-03 5.039E-03 3.422E+00
 ETOT  6  0.46356041431943     -8.060E-04 2.508E-05 3.988E-01
 ETOT  7  0.46351362170753     -4.679E-05 2.852E-06 2.698E-01
 ETOT  8  0.46334450296854     -1.691E-04 6.456E-07 1.479E-02
 ETOT  9  0.46333690542679     -7.598E-06 6.670E-08 4.269E-04
 ETOT 10  0.46333670862566     -1.968E-07 2.236E-09 6.711E-05
 ETOT 11  0.46333667324154     -3.538E-08 1.381E-10 6.342E-07
 ETOT 12  0.46333667294959     -2.919E-10 1.114E-11 7.387E-08
 ETOT 13  0.46333667293231     -1.728E-11 1.748E-13 4.575E-09
 ETOT 14  0.46333667292890     -3.411E-12 4.843E-14 1.434E-10
 ETOT 15  0.46333667292947      5.684E-13 1.758E-15 1.595E-11
 ETOT 16  0.46333667292902     -4.547E-13 8.177E-17 5.004E-13
 ETOT 17  0.46333667292959      5.684E-13 6.070E-18 3.722E-14
 
 At SCF step   17       vres2   =  3.72E-14 < tolvrs=  1.00E-13 =>converged.
-open ddk wf file :o_DS2_1WF19.nc
-open ddk wf file :o_DS2_1WF20.nc
-open ddk wf file :o_DS2_1WF21.nc
================================================================================
 
 ----iterations are completed or convergence reached----
 
 Mean square residual over all n,k,spin=   21.067E-20; max=  60.696E-19
 
 Seventeen components of 2nd-order total energy (hartree) are
 1,2,3: 0th-order hamiltonian combined with 1st-order wavefunctions
     kin0=   5.64938746E+02 eigvalue=   1.27128056E+01  local=  -8.01829585E+01
 4,5,6,7: 1st-order hamiltonian combined with 1st and 0th-order wfs
 loc psp =  -1.25523801E+02  Hartree=   5.63191066E+01     xc=  -1.24182082E+01
     kin1=  -9.04710318E+02
 8,9,10: eventually, occupation + non-local contributions
    edocc=   0.00000000E+00     enl0=   7.42309765E+00   enl1=  -4.80183018E+01
 1-10 gives the relaxation energy (to be shifted if some occ is /=2.0)
   erelax=  -5.29459831E+02
 11,12,13 Non-relaxation  contributions : frozen-wavefunctions and Ewald
  fr.hart=   3.46733758E-01   fr.kin=   4.56144262E+02 fr.loc=   2.71283384E+01
 14,15,16 Non-relaxation  contributions : frozen-wavefunctions and Ewald
  fr.nonl=   2.18878902E+01    fr.xc=  -3.47632985E+00  Ewald=   2.07479617E+01
 17 Non-relaxation  contributions : pseudopotential core energy
  pspcore=   7.14431128E+00
 Resulting in :
 2DEtotal=    0.4633366729E+00 Ha. Also 2DEtotal=    0.126080320635E+02 eV
    (2DErelax=   -5.2945983106E+02 Ha. 2DEnonrelax=    5.2992316774E+02 Ha)
    (  non-var. 2DEtotal :    4.6333667783E-01 Ha)
 
 
--------------------------------------------------------------------------------
 Perturbation wavevector (in red.coord.)   0.000000  0.000000  0.000000
 Found     8 symmetries that leave the perturbation invariant.
 symkpt : the number of k-points, thanks to the symmetries,
 is reduced to    27 .
 
--------------------------------------------------------------------------------
 
-inwffil : will read wavefunctions from disk file o_DS2_WFK.nc
--------------------------------------------------------------------------------
 
 Initialisation of the first-order wave-functions :
  ireadwf=   0

--- !BeginCycle
iteration_state: {dtset: 3, }
solver: {iscf: 7, nstep: 100, nline: 4, wfoptalg: 0, }
tolerances: {tolvrs: 1.00E-13, }
...
 
     iter   2DEtotal(Ha)        deltaE(Ha) residm    vres2
-ETOT  1   22.434898313473     -5.075E+02 6.320E+02 3.040E+04
 ETOT  2   14.750050461843     -7.685E+00 1.518E+00 1.420E+04
 ETOT  3   3.4542822890814     -1.130E+01 3.173E-01 3.237E+03
 ETOT  4  0.47079415146720     -2.983E+00 1.858E-02 1.035E+01
 ETOT  5  0.46436266271428     -6.431E-03 5.039E-03 3.422E+00
 ETOT  6  0.46355665231715     -8.060E-04 2.508E-05 3.988E-01
 ETOT  7  0.46350985970582     -4.679E-05 2.852E-06 2.698E-01
 ETOT  8  0.46334074096580     -1.691E-04 6.456E-07 1.479E-02
 ETOT  9  0.46333314342462     -7.598E-06 6.670E-08 4.269E-04
 ETOT 10  0.46333294662168     -1.968E-07 2.236E-09 6.711E-05
 ETOT 11  0.46333291123938     -3.538E-08 1.381E-10 6.343E-07
 ETOT 12  0.46333291094788     -2.915E-10 1.028E-11 7.392E-08
 ETOT 13  0.46333291092947     -1.842E-11 1.748E-13 4.578E-09
 ETOT 14  0.46333291092674     -2.728E-12 4.845E-14 1.437E-10
 ETOT 15  0.46333291092651     -2.274E-13 1.759E-15 1.603E-11
 ETOT 16  0.46333291092674      2.274E-13 8.191E-17 5.031E-13
 ETOT 17  0.46333291092731      5.684E-13 6.078E-18 3.740E-14
 
 At SCF step   17       vres2   =  3.74E-14 < tolvrs=  1.00E-13 =>converged.
-open ddk wf file :o_DS2_1WF19.nc
-open ddk wf file :o_DS2_1WF20.nc
-open ddk wf file :o_DS2_1WF21.nc
================================================================================
 
 ----iterations are completed or convergence reached----
 
 Mean square residual over all n,k,spin=   21.054E-20; max=  60.785E-19
 
 Seventeen components of 2nd-order total energy (hartree) are
 1,2,3: 0th-order hamiltonian combined with 1st-order wavefunctions
     kin0=   5.64938754E+02 eigvalue=   1.27128056E+01  local=  -8.01829585E+01
 4,5,6,7: 1st-order hamiltonian combined with 1st and 0th-order wfs
 loc psp =  -1.25523801E+02  Hartree=   5.63191066E+01     xc=  -1.24182082E+01
     kin1=  -9.04710333E+02
 8,9,10: eventually, occupation + non-local contributions
    edocc=   0.00000000E+00     enl0=   7.42309764E+00   enl1=  -4.80183018E+01
 1-10 gives the relaxation energy (to be shifted if some occ is /=2.0)
   erelax=  -5.29459839E+02
 11,12,13 Non-relaxation  contributions : frozen-wavefunctions and Ewald
  fr.hart=   3.46733758E-01   fr.kin=   4.56144266E+02 fr.loc=   2.71283384E+01
 14,15,16 Non-relaxation  contributions : frozen-wavefunctions and Ewald
  fr.nonl=   2.18878902E+01    fr.xc=  -3.47632985E+00  Ewald=   2.07479617E+01
 17 Non-relaxation  contributions : pseudopotential core energy
  pspcore=   7.14431128E+00
 Resulting in :
 2DEtotal=    0.4633329109E+00 Ha. Also 2DEtotal=    0.126079296942E+02 eV
    (2DErelax=   -5.2945983880E+02 Ha. 2DEnonrelax=    5.2992317171E+02 Ha)
    (  non-var. 2DEtotal :    4.6333291584E-01 Ha)
 
 
--------------------------------------------------------------------------------
 Perturbation wavevector (in red.coord.)   0.000000  0.000000  0.000000
 Found    16 symmetries that leave the perturbation invariant.
 symkpt : the number of k-points, thanks to the symmetries,
 is reduced to    18 .
 
--------------------------------------------------------------------------------
 
-inwffil : will read wavefunctions from disk file o_DS2_WFK.nc
--------------------------------------------------------------------------------
 
 Initialisation of the first-order wave-functions :
  ireadwf=   0

--- !BeginCycle
iteration_state: {dtset: 3, }
solver: {iscf: 7, nstep: 100, nline: 4, wfoptalg: 0, }
tolerances: {tolvrs: 1.00E-13, }
...
 
     iter   2DEtotal(Ha)        deltaE(Ha) residm    vres2
-ETOT  1   16.965217087793     -4.968E+02 2.062E+02 2.028E+04
 ETOT  2   12.745925276795     -4.219E+00 2.339E-01 1.255E+04
 ETOT  3   2.0953899564598     -1.065E+01 9.234E-02 2.050E+03
 ETOT  4  0.23495590461630     -1.860E+00 6.531E-03 8.985E+00
 ETOT  5  0.23060272912141     -4.353E-03 1.463E-03 2.863E+00
 ETOT  6  0.22997028215309     -6.324E-04 6.969E-06 2.463E-01
 ETOT  7  0.22989533628754     -7.495E-05 6.538E-07 2.814E-02
 ETOT  8  0.22987884121153     -1.650E-05 6.057E-08 1.696E-04
 ETOT  9  0.22987864017387     -2.010E-07 6.374E-10 1.466E-05
 ETOT 10  0.22987863639628     -3.778E-09 5.456E-11 2.377E-07
 ETOT 11  0.22987863633750     -5.878E-11 3.180E-12 2.103E-08
 ETOT 12  0.22987863632966     -7.844E-12 2.428E-13 1.650E-09
 ETOT 13  0.22987863632909     -5.684E-13 2.589E-14 3.180E-11
 ETOT 14  0.22987863632841     -6.821E-13 1.730E-15 5.294E-13
 ETOT 15  0.22987863632852      1.137E-13 1.452E-16 7.726E-15
 
 At SCF step   15       vres2   =  7.73E-15 < tolvrs=  1.00E-13 =>converged.
-open ddk wf file :o_DS2_1WF19.nc
-open ddk wf file :o_DS2_1WF20.nc
-open ddk wf file :o_DS2_1WF21.nc
================================================================================
 
 ----iterations are completed or convergence reached----
 
 Mean square residual over all n,k,spin=   74.159E-20; max=  14.517E-17
 
 Seventeen components of 2nd-order total energy (hartree) are
 1,2,3: 0th-order hamiltonian combined with 1st-order wavefunctions
     kin0=   5.40023647E+02 eigvalue=   1.66491793E+01  local=  -7.14009282E+01
 4,5,6,7: 1st-order hamiltonian combined with 1st and 0th-order wfs
 loc psp =  -8.91537536E+01  Hartree=   3.16899962E+01     xc=  -1.10553797E+01
     kin1=  -8.89182652E+02
 8,9,10: eventually, occupation + non-local contributions
    edocc=   0.00000000E+00     enl0=   8.65817634E+00   enl1=  -4.97734772E+01
 1-10 gives the relaxation energy (to be shifted if some occ is /=2.0)
   erelax=  -5.13545192E+02
 11,12,13 Non-relaxation  contributions : frozen-wavefunctions and Ewald
  fr.hart=  -1.04324781E+01   fr.kin=   4.50496146E+02 fr.loc=   8.60139167E+01
 14,15,16 Non-relaxation  contributions : frozen-wavefunctions and Ewald
  fr.nonl=   2.18096367E+01    fr.xc=  -3.44720178E+00  Ewald=  -3.78092602E+01
 17 Non-relaxation  contributions : pseudopotential core energy
  pspcore=   7.14431128E+00
 Resulting in :
 2DEtotal=    0.2298786363E+00 Ha. Also 2DEtotal=    0.625531581435E+01 eV
    (2DErelax=   -5.1354519224E+02 Ha. 2DEnonrelax=    5.1377507088E+02 Ha)
    (  non-var. 2DEtotal :    2.2987862749E-01 Ha)
 
 
--------------------------------------------------------------------------------
 Perturbation wavevector (in red.coord.)   0.000000  0.000000  0.000000
 Found     4 symmetries that leave the perturbation invariant.
 symkpt : the number of k-points, thanks to the symmetries,
 is reduced to    30 .
 
--------------------------------------------------------------------------------
 
-inwffil : will read wavefunctions from disk file o_DS2_WFK.nc
--------------------------------------------------------------------------------
 
 Initialisation of the first-order wave-functions :
  ireadwf=   0

--- !BeginCycle
iteration_state: {dtset: 3, }
solver: {iscf: 7, nstep: 100, nline: 4, wfoptalg: 0, }
tolerances: {tolvrs: 1.00E-13, }
...
 
     iter   2DEtotal(Ha)        deltaE(Ha) residm    vres2
-ETOT  1   6.4121886612582     -2.024E+02 7.015E+02 1.103E+04
 ETOT  2   1.2932397873626     -5.119E+00 3.265E-01 5.097E+01
 ETOT  3   1.2252901141236     -6.795E-02 2.109E-03 9.245E+00
 ETOT  4   1.2202859072944     -5.004E-03 1.817E-04 1.115E-01
 ETOT  5   1.2201119994106     -1.739E-04 4.538E-05 1.789E-03
 ETOT  6   1.2201069509150     -5.048E-06 7.781E-07 7.289E-05
[...]
   3    8   1   10         0.0000000000         0.0000000000
   3    8   2   10         0.0000000000         0.0000000000
   3    8   3   10         0.0000000000         0.0000000000
 
  Phonon wavevector (reduced coordinates) :  0.00000  0.00000  0.00000
 Phonon energies in Hartree :
  -1.134158E-03 -1.625506E-04  5.007553E-05  5.007553E-05  4.779828E-04
   4.779828E-04  9.258738E-04  1.020787E-03  1.020787E-03  1.309534E-03
   1.309534E-03  1.422637E-03  2.562152E-03  2.562152E-03  2.616726E-03
   2.638849E-03  2.638849E-03  3.132640E-03
 Phonon frequencies in cm-1    :
- -2.489189E+02 -3.567573E+01  1.099031E+01  1.099031E+01  1.049051E+02
-  1.049051E+02  2.032058E+02  2.240368E+02  2.240368E+02  2.874095E+02
-  2.874095E+02  3.122327E+02  5.623273E+02  5.623273E+02  5.743050E+02
-  5.791605E+02  5.791605E+02  6.875350E+02
 
  Phonon at Gamma, with non-analyticity in the
  direction (cartesian coordinates)  1.00000  0.00000  0.00000
 Phonon energies in Hartree :
  -1.134158E-03 -1.625506E-04  5.007553E-05  5.019886E-05  4.779828E-04
   4.800201E-04  9.258738E-04  1.020787E-03  1.309534E-03  1.309534E-03
   1.422637E-03  2.556526E-03  2.562152E-03  2.616726E-03  2.638849E-03
   2.638849E-03  2.996675E-03  3.132640E-03
 Phonon frequencies in cm-1    :
- -2.489189E+02 -3.567573E+01  1.099031E+01  1.101738E+01  1.049051E+02
-  1.053522E+02  2.032058E+02  2.240368E+02  2.874095E+02  2.874095E+02
-  3.122327E+02  5.610926E+02  5.623273E+02  5.743050E+02  5.791605E+02
-  5.791605E+02  6.576942E+02  6.875350E+02
 
  Phonon at Gamma, with non-analyticity in the
  direction (cartesian coordinates)  0.00000  1.00000  0.00000
 Phonon energies in Hartree :
  -1.134158E-03 -1.625506E-04  5.007553E-05  5.019886E-05  4.779828E-04
   4.800201E-04  9.258738E-04  1.020787E-03  1.309534E-03  1.309534E-03
   1.422637E-03  2.556526E-03  2.562152E-03  2.616726E-03  2.638849E-03
   2.638849E-03  2.996675E-03  3.132640E-03
 Phonon frequencies in cm-1    :
- -2.489189E+02 -3.567573E+01  1.099031E+01  1.101738E+01  1.049051E+02
-  1.053522E+02  2.032058E+02  2.240368E+02  2.874095E+02  2.874095E+02
-  3.122327E+02  5.610926E+02  5.623273E+02  5.743050E+02  5.791605E+02
-  5.791605E+02  6.576942E+02  6.875350E+02
 
  Phonon at Gamma, with non-analyticity in the
  direction (cartesian coordinates)  0.00000  0.00000  1.00000
 Phonon energies in Hartree :
  -1.134158E-03 -1.550999E-04  5.007553E-05  5.007553E-05  4.779828E-04
   4.779828E-04  1.020787E-03  1.020787E-03  1.309534E-03  1.309534E-03
   1.369029E-03  2.562152E-03  2.562152E-03  2.616726E-03  2.638849E-03
   2.638849E-03  2.923877E-03  3.132640E-03
 Phonon frequencies in cm-1    :
- -2.489189E+02 -3.404050E+01  1.099031E+01  1.099031E+01  1.049051E+02
-  1.049051E+02  2.240368E+02  2.240368E+02  2.874095E+02  2.874095E+02
-  3.004672E+02  5.623273E+02  5.623273E+02  5.743050E+02  5.791605E+02
-  5.791605E+02  6.417167E+02  6.875350E+02
 
== END DATASET(S) ==============================================================
================================================================================
  
 -outvars: echo values of variables after computation  --------
            acell      6.7784476387E+00  6.7784476387E+00  9.5867885420E+00 Bohr
              amu      1.78490000E+02  9.12240000E+01  1.59994000E+01
         berryopt1          0
         berryopt2         -2
         berryopt3          0
          dilatmx      1.05000000E+00
             ecut      2.50000000E+01 Hartree
           ecutsm      5.00000000E-01 Hartree
           etotal1    -1.7351262780E+02
           etotal3    -6.6845334492E-01
            fcart1     0.0000000000E+00  0.0000000000E+00  1.4456028966E-19
                       0.0000000000E+00  0.0000000000E+00  1.4456028966E-19
                       0.0000000000E+00  0.0000000000E+00 -3.5735932942E-03
                       0.0000000000E+00  0.0000000000E+00  3.5735932942E-03
                       0.0000000000E+00  0.0000000000E+00 -3.5735932942E-03
                       0.0000000000E+00  0.0000000000E+00  3.5735932942E-03
            fcart3     0.0000000000E+00  0.0000000000E+00  0.0000000000E+00
                       0.0000000000E+00  0.0000000000E+00  0.0000000000E+00
                       0.0000000000E+00  0.0000000000E+00  0.0000000000E+00
                       0.0000000000E+00  0.0000000000E+00  0.0000000000E+00
                       0.0000000000E+00  0.0000000000E+00  0.0000000000E+00
                       0.0000000000E+00  0.0000000000E+00  0.0000000000E+00
-          fftalg         512
           getddk1          0
           getddk2          0
           getddk3          2
           getden1          0
           getden2          1
           getden3          0
           getwfk1          0
           getwfk2          1
           getwfk3          2
             iscf1          7
             iscf2         -2
             iscf3          7
           istwfk1       2    0    3    0    0    0    0    6    0    7
                         0    0    0    0    0    0    0    0    0    0
                         0    0    0    0    0    0    4    0    5    0
                         0    0    0    8    0    9
           istwfk2       1    0    1    0    0    0    0    1    0    1
                         0    0    0    0    0    0    0    0    0    0
                         0    0    0    0    0    0    1    0    1    0
                         0    0    0    1    0    1
           istwfk3       1    0    1    0    0    0    0    1    0    1
                         0    0    0    0    0    0    0    0    0    0
                         0    0    0    0    0    0    1    0    1    0
                         0    0    0    1    0    1
              ixc          11
           jdtset        1    2    3
              kpt      0.00000000E+00  0.00000000E+00  0.00000000E+00
                       2.50000000E-01  0.00000000E+00  0.00000000E+00
                       5.00000000E-01  0.00000000E+00  0.00000000E+00
                       0.00000000E+00  2.50000000E-01  0.00000000E+00
                       2.50000000E-01  2.50000000E-01  0.00000000E+00
                       5.00000000E-01  2.50000000E-01  0.00000000E+00
                      -2.50000000E-01  2.50000000E-01  0.00000000E+00
                       0.00000000E+00  5.00000000E-01  0.00000000E+00
                       2.50000000E-01  5.00000000E-01  0.00000000E+00
                       5.00000000E-01  5.00000000E-01  0.00000000E+00
                       0.00000000E+00  0.00000000E+00  2.50000000E-01
                       2.50000000E-01  0.00000000E+00  2.50000000E-01
                       5.00000000E-01  0.00000000E+00  2.50000000E-01
                      -2.50000000E-01  0.00000000E+00  2.50000000E-01
                       0.00000000E+00  2.50000000E-01  2.50000000E-01
                       2.50000000E-01  2.50000000E-01  2.50000000E-01
                       5.00000000E-01  2.50000000E-01  2.50000000E-01
                      -2.50000000E-01  2.50000000E-01  2.50000000E-01
                       0.00000000E+00  5.00000000E-01  2.50000000E-01
                       2.50000000E-01  5.00000000E-01  2.50000000E-01
                       5.00000000E-01  5.00000000E-01  2.50000000E-01
                      -2.50000000E-01  5.00000000E-01  2.50000000E-01
                       0.00000000E+00 -2.50000000E-01  2.50000000E-01
                       2.50000000E-01 -2.50000000E-01  2.50000000E-01
                       5.00000000E-01 -2.50000000E-01  2.50000000E-01
                      -2.50000000E-01 -2.50000000E-01  2.50000000E-01
                       0.00000000E+00  0.00000000E+00  5.00000000E-01
                       2.50000000E-01  0.00000000E+00  5.00000000E-01
                       5.00000000E-01  0.00000000E+00  5.00000000E-01
                       0.00000000E+00  2.50000000E-01  5.00000000E-01
                       2.50000000E-01  2.50000000E-01  5.00000000E-01
                       5.00000000E-01  2.50000000E-01  5.00000000E-01
                      -2.50000000E-01  2.50000000E-01  5.00000000E-01
                       0.00000000E+00  5.00000000E-01  5.00000000E-01
                       2.50000000E-01  5.00000000E-01  5.00000000E-01
                       5.00000000E-01  5.00000000E-01  5.00000000E-01
           kptopt           2
         kptrlatt        4    0    0      0    4    0      0    0    4
          kptrlen      2.71137906E+01
P           mkmem           1
P          mkqmem           1
P          mk1mem           1
            natom           6
            nband          24
           nbdbuf1          0
           nbdbuf2          2
           nbdbuf3          0
           ndtset           3
            ngfft          36      36      48
             nkpt          36
            nstep1        100
            nstep2         30
            nstep3        100
             nsym          16
           ntypat           3
              occ      2.000000  2.000000  2.000000  2.000000  2.000000  2.000000
                       2.000000  2.000000  2.000000  2.000000  2.000000  2.000000
                       2.000000  2.000000  2.000000  2.000000  2.000000  2.000000
                       2.000000  2.000000  2.000000  2.000000  2.000000  2.000000
        optdriver1          0
        optdriver2          0
        optdriver3          1
        pawecutdg      3.00000000E+01 Hartree
         pawxcdev           0
           prtden1          1
           prtden2          0
           prtden3          0
           prteig           0
            prtwf1          1
            prtwf2          1
            prtwf3          0
          rfatpol1          1       1
          rfatpol2          1       1
          rfatpol3          1       6
            rfdir1          0       0       0
            rfdir2          1       1       1
            rfdir3          1       1       1
           rfelfd1          0
           rfelfd2          0
           rfelfd3          3
           rfphon1          0
           rfphon2          0
           rfphon3          1
           rfstrs1          0
           rfstrs2          0
           rfstrs3          3
          spgroup         123
           strten1    -1.6460533576E-04 -1.6460533576E-04 -1.4538913933E-04
                       0.0000000000E+00  0.0000000000E+00  0.0000000000E+00
           strten3     0.0000000000E+00  0.0000000000E+00  0.0000000000E+00
                       0.0000000000E+00  0.0000000000E+00  0.0000000000E+00
        symmorphi           0
           symrel      1  0  0   0  1  0   0  0  1      -1  0  0   0 -1  0   0  0 -1
                      -1  0  0   0  1  0   0  0 -1       1  0  0   0 -1  0   0  0  1
                      -1  0  0   0 -1  0   0  0  1       1  0  0   0  1  0   0  0 -1
                       1  0  0   0 -1  0   0  0 -1      -1  0  0   0  1  0   0  0  1
                       0  1  0   1  0  0   0  0  1       0 -1  0  -1  0  0   0  0 -1
                       0 -1  0   1  0  0   0  0 -1       0  1  0  -1  0  0   0  0  1
                       0 -1  0  -1  0  0   0  0  1       0  1  0   1  0  0   0  0 -1
                       0  1  0  -1  0  0   0  0 -1       0 -1  0   1  0  0   0  0  1
           toldfe1     1.00000000E-13 Hartree
           toldfe2     0.00000000E+00 Hartree
           toldfe3     0.00000000E+00 Hartree
           tolvrs1     0.00000000E+00
           tolvrs2     0.00000000E+00
           tolvrs3     1.00000000E-13
           tolwfr1     0.00000000E+00
           tolwfr2     1.00000000E-22
           tolwfr3     0.00000000E+00
            typat      1  2  3  3  3  3
              wtk        0.01563    0.03125    0.01563    0.03125    0.03125    0.03125
                         0.03125    0.01563    0.03125    0.01563    0.03125    0.03125
                         0.03125    0.03125    0.03125    0.03125    0.03125    0.03125
                         0.03125    0.03125    0.03125    0.03125    0.03125    0.03125
                         0.03125    0.03125    0.01563    0.03125    0.01563    0.03125
                         0.03125    0.03125    0.03125    0.01563    0.03125    0.01563
           xangst      0.0000000000E+00  0.0000000000E+00  0.0000000000E+00
                       1.7935000000E+00  1.7935000000E+00  2.5365550000E+00
                       1.7935000000E+00  0.0000000000E+00  1.2682775000E+00
                       1.7935000000E+00  0.0000000000E+00  3.8048325000E+00
                       0.0000000000E+00  1.7935000000E+00  1.2682775000E+00
                       0.0000000000E+00  1.7935000000E+00  3.8048325000E+00
            xcart      0.0000000000E+00  0.0000000000E+00  0.0000000000E+00
                       3.3892238193E+00  3.3892238193E+00  4.7933942710E+00
                       3.3892238193E+00  0.0000000000E+00  2.3966971355E+00
                       3.3892238193E+00  0.0000000000E+00  7.1900914065E+00
                       0.0000000000E+00  3.3892238193E+00  2.3966971355E+00
                       0.0000000000E+00  3.3892238193E+00  7.1900914065E+00
             xred      0.0000000000E+00  0.0000000000E+00  0.0000000000E+00
                       5.0000000000E-01  5.0000000000E-01  5.0000000000E-01
                       5.0000000000E-01  0.0000000000E+00  2.5000000000E-01
                       5.0000000000E-01  0.0000000000E+00  7.5000000000E-01
                       0.0000000000E+00  5.0000000000E-01  2.5000000000E-01
                       0.0000000000E+00  5.0000000000E-01  7.5000000000E-01
            znucl       72.00000   40.00000    8.00000
 
================================================================================


- Timing analysis has been suppressed with timopt=0



================================================================================

 Suggested references for the acknowledgment of ABINIT usage.

 The users of ABINIT have little formal obligations with respect to the ABINIT group
 (those specified in the GNU General Public License, http://www.gnu.org/copyleft/gpl.txt).
 However, it is common practice in the scientific literature,
 to acknowledge the efforts of people that have made the research possible.
 In this spirit, please find below suggested citations of work written by ABINIT developers,
 corresponding to implementations inside of ABINIT that you have used in the present run.
 Note also that it will be of great value to readers of publications presenting these results,
 to read papers enabling them to understand the theoretical formalism and details
 of the ABINIT implementation.
 For information on why they are suggested, see also https://docs.abinit.org/theory/acknowledgments.
-
- [1] Specification of an extensible and portable file format for electronic structure and crystallographic data
- X. Gonze, C.-O. Almbladh, A. Cucca, D. Caliste, C. Freysoldt, M. Marques, V. Olevano, Y. Pouillon, M.J. Verstraete,
- Comput. Material Science 43, 1056 (2008).
- Comment: to be cited in case the ETSF_IO file format is used, i.e. iomode=3.
- DOI and bibtex: see https://docs.abinit.org/theory/bibliography/#gonze2008
-
- [2] Metric tensor formulation of strain in density-functional perturbation theory, 
- D. R. Hamann, X. Wu, K. M. Rabe, and D. Vanderbilt, Phys. Rev. B71, 035117 (2005).
- Comment: Non-vanishing rfstrs. Strong suggestion to cite this paper in your publications.
- DOI and bibtex: see https://docs.abinit.org/theory/bibliography/#hamann2005
-
- [3] The Abinit project: Impact, environment and recent developments.
- Computer Phys. Comm. 248, 107042 (2020).
- X.Gonze, B. Amadon, G. Antonius, F.Arnardi, L.Baguet, J.-M.Beuken,
- J.Bieder, F.Bottin, J.Bouchet, E.Bousquet, N.Brouwer, F.Bruneval,
- G.Brunin, T.Cavignac, J.-B. Charraud, Wei Chen, M.Cote, S.Cottenier,
- J.Denier, G.Geneste, Ph.Ghosez, M.Giantomassi, Y.Gillet, O.Gingras,
- D.R.Hamann, G.Hautier, Xu He, N.Helbig, N.Holzwarth, Y.Jia, F.Jollet,
- W.Lafargue-Dit-Hauret, K.Lejaeghere, M.A.L.Marques, A.Martin, C.Martins,
- H.P.C. Miranda, F.Naccarato, K. Persson, G.Petretto, V.Planes, Y.Pouillon,
- S.Prokhorenko, F.Ricci, G.-M.Rignanese, A.H.Romero, M.M.Schmitt, M.Torrent,
- M.J.van Setten, B.Van Troeye, M.J.Verstraete, G.Zerah and J.W.Zwanzig
- Comment: the fifth generic paper describing the ABINIT project.
- Note that a version of this paper, that is not formatted for Computer Phys. Comm. 
- is available at https://www.abinit.org/sites/default/files/ABINIT20.pdf .
- The licence allows the authors to put it on the Web.
- DOI and bibtex: see https://docs.abinit.org/theory/bibliography/#gonze2020
-
- [4] First-principles responses of solids to atomic displacements and homogeneous electric fields:,
- implementation of a conjugate-gradient algorithm. X. Gonze, Phys. Rev. B55, 10337 (1997).
- Comment: Non-vanishing rfphon and/or rfelfd, in the norm-conserving case.
- DOI and bibtex: see https://docs.abinit.org/theory/bibliography/#gonze1997
-
- [5] Dynamical matrices, Born effective charges, dielectric permittivity tensors, and ,
- interatomic force constants from density-functional perturbation theory,
- X. Gonze and C. Lee, Phys. Rev. B55, 10355 (1997).
- Comment: Non-vanishing rfphon and/or rfelfd, in the norm-conserving case.
- DOI and bibtex: see https://docs.abinit.org/theory/bibliography/#gonze1997a
-
- [6] Optimized norm-conserving Vanderbilt pseudopotentials.
- D.R. Hamann, Phys. Rev. B 88, 085117 (2013).
- Comment: Some pseudopotential generated using the ONCVPSP code were used.
- DOI and bibtex: see https://docs.abinit.org/theory/bibliography/#hamann2013
-
- [7] ABINIT: Overview, and focus on selected capabilities
- J. Chem. Phys. 152, 124102 (2020).
- A. Romero, D.C. Allan, B. Amadon, G. Antonius, T. Applencourt, L.Baguet,
- J.Bieder, F.Bottin, J.Bouchet, E.Bousquet, F.Bruneval,
- G.Brunin, D.Caliste, M.Cote,
- J.Denier, C. Dreyer, Ph.Ghosez, M.Giantomassi, Y.Gillet, O.Gingras,
- D.R.Hamann, G.Hautier, F.Jollet, G. Jomard,
- A.Martin, 
- H.P.C. Miranda, F.Naccarato, G.Petretto, N.A. Pike, V.Planes,
- S.Prokhorenko, T. Rangel, F.Ricci, G.-M.Rignanese, M.Royo, M.Stengel, M.Torrent,
- M.J.van Setten, B.Van Troeye, M.J.Verstraete, J.Wiktor, J.W.Zwanziger, and X.Gonze.
- Comment: a global overview of ABINIT, with focus on selected capabilities .
- Note that a version of this paper, that is not formatted for J. Chem. Phys 
- is available at https://www.abinit.org/sites/default/files/ABINIT20_JPC.pdf .
- The licence allows the authors to put it on the Web.
- DOI and bibtex: see https://docs.abinit.org/theory/bibliography/#romero2020
-
- [8] Recent developments in the ABINIT software package.
- Computer Phys. Comm. 205, 106 (2016).
- X.Gonze, F.Jollet, F.Abreu Araujo, D.Adams, B.Amadon, T.Applencourt,
- C.Audouze, J.-M.Beuken, J.Bieder, A.Bokhanchuk, E.Bousquet, F.Bruneval
- D.Caliste, M.Cote, F.Dahm, F.Da Pieve, M.Delaveau, M.Di Gennaro,
- B.Dorado, C.Espejo, G.Geneste, L.Genovese, A.Gerossier, M.Giantomassi,
- Y.Gillet, D.R.Hamann, L.He, G.Jomard, J.Laflamme Janssen, S.Le Roux,
- A.Levitt, A.Lherbier, F.Liu, I.Lukacevic, A.Martin, C.Martins,
- M.J.T.Oliveira, S.Ponce, Y.Pouillon, T.Rangel, G.-M.Rignanese,
- A.H.Romero, B.Rousseau, O.Rubel, A.A.Shukri, M.Stankovski, M.Torrent,
- M.J.Van Setten, B.Van Troeye, M.J.Verstraete, D.Waroquier, J.Wiktor,
- B.Xu, A.Zhou, J.W.Zwanziger.
- Comment: the fourth generic paper describing the ABINIT project.
- Note that a version of this paper, that is not formatted for Computer Phys. Comm. 
- is available at https://www.abinit.org/sites/default/files/ABINIT16.pdf .
- The licence allows the authors to put it on the Web.
- DOI and bibtex: see https://docs.abinit.org/theory/bibliography/#gonze2016
-
- Proc.   0 individual time (sec): cpu=        103.4  wall=        130.9
 
================================================================================
 
 Calculation completed.
.Delivered   0 WARNINGs and  19 COMMENTs to log file.
+Overall time at end (sec) : cpu=       3867.8  wall=       4710.2
