
.Version 9.4.1 of ABINIT 
.(MPI version, prepared for a x86_64_linux_intel19.0 computer) 

.Copyright (C) 1998-2021 ABINIT group . 
 ABINIT comes with ABSOLUTELY NO WARRANTY.
 It is free software, and you are welcome to redistribute it
 under certain conditions (GNU General Public License,
 see ~abinit/COPYING or http://www.gnu.org/copyleft/gpl.txt).

 ABINIT is a project of the Universite Catholique de Louvain,
 Corning Inc. and other collaborators, see ~abinit/doc/developers/contributors.txt .
 Please read https://docs.abinit.org/theory/acknowledgments for suggested
 acknowledgments of the ABINIT effort.
 For more information, see https://www.abinit.org .

.Starting date : Sat  3 Jul 2021.
- ( at 08h03 )
  
- input  file    -> PATH19
- output file    -> PATH19.abo
- root for input  files -> i
- root for output files -> o
 
 
 Symmetries : space group P1 (#  1); Bravais aP (primitive triclinic)
================================================================================
 Values of the parameters that define the memory need of the present run
     intxc =       0    ionmov =       0      iscf =       7    lmnmax =       8
     lnmax =       8     mgfft =      45  mpssoang =       4    mqgrid =    3001
     natom =      12  nloc_mem =       1    nspden =       1   nspinor =       1
    nsppol =       1      nsym =       1    n1xccc =    2501    ntypat =       2
    occopt =       1   xclevel =       2
-    mband =          50        mffmem =           1         mkmem =           4
       mpw =        5280          nfft =       91125          nkpt =         112
================================================================================
P This job should need less than                      45.554 Mbytes of memory.
  Rough estimation (10% accuracy) of disk space for files :
_ WF disk file :    451.174 Mbytes ; DEN or POT disk file :      0.697 Mbytes.
================================================================================
 
--------------------------------------------------------------------------------
------------- Echo of variables that govern the present computation ------------
--------------------------------------------------------------------------------
-
- outvars: echo of selected default values                                      
-   iomode0 =  3 , fftalg0 =512 , wfoptalg0 =  0
-
- outvars: echo of global parameters not present in the input file              
-  max_nthreads =    0
-
 -outvars: echo values of preprocessed input variables --------
            acell      9.5914334888E+00  9.5914334888E+00  9.5914334888E+00 Bohr
              amu      1.78490000E+02  1.59994000E+01
          chkprim           0
             ecut      2.50000000E+01 Hartree
           ecutsm      5.00000000E-01 Hartree
-          fftalg         512
           istwfk        2    0    0    3    0    0    0    0    0    0
                         0    0    0    0    0    0    6    0    0    7
                         0    0    0    0    0    0    0    0    0    0
                         0    0    0    0    0    0    0    0    0    0
                         0    0    0    0    0    0    0    0    0    0
                       outvar_i_n : Printing only first  50 k-points.
              ixc          11
              kpt      0.00000000E+00  0.00000000E+00  0.00000000E+00
                       1.66666667E-01  0.00000000E+00  0.00000000E+00
                       3.33333333E-01  0.00000000E+00  0.00000000E+00
                       5.00000000E-01  0.00000000E+00  0.00000000E+00
                       0.00000000E+00  1.66666667E-01  0.00000000E+00
                       1.66666667E-01  1.66666667E-01  0.00000000E+00
                       3.33333333E-01  1.66666667E-01  0.00000000E+00
                       5.00000000E-01  1.66666667E-01  0.00000000E+00
                      -3.33333333E-01  1.66666667E-01  0.00000000E+00
                      -1.66666667E-01  1.66666667E-01  0.00000000E+00
                       0.00000000E+00  3.33333333E-01  0.00000000E+00
                       1.66666667E-01  3.33333333E-01  0.00000000E+00
                       3.33333333E-01  3.33333333E-01  0.00000000E+00
                       5.00000000E-01  3.33333333E-01  0.00000000E+00
                      -3.33333333E-01  3.33333333E-01  0.00000000E+00
                      -1.66666667E-01  3.33333333E-01  0.00000000E+00
                       0.00000000E+00  5.00000000E-01  0.00000000E+00
                       1.66666667E-01  5.00000000E-01  0.00000000E+00
                       3.33333333E-01  5.00000000E-01  0.00000000E+00
                       5.00000000E-01  5.00000000E-01  0.00000000E+00
                       0.00000000E+00  0.00000000E+00  1.66666667E-01
                       1.66666667E-01  0.00000000E+00  1.66666667E-01
                       3.33333333E-01  0.00000000E+00  1.66666667E-01
                       5.00000000E-01  0.00000000E+00  1.66666667E-01
                      -3.33333333E-01  0.00000000E+00  1.66666667E-01
                      -1.66666667E-01  0.00000000E+00  1.66666667E-01
                       0.00000000E+00  1.66666667E-01  1.66666667E-01
                       1.66666667E-01  1.66666667E-01  1.66666667E-01
                       3.33333333E-01  1.66666667E-01  1.66666667E-01
                       5.00000000E-01  1.66666667E-01  1.66666667E-01
                      -3.33333333E-01  1.66666667E-01  1.66666667E-01
                      -1.66666667E-01  1.66666667E-01  1.66666667E-01
                       0.00000000E+00  3.33333333E-01  1.66666667E-01
                       1.66666667E-01  3.33333333E-01  1.66666667E-01
                       3.33333333E-01  3.33333333E-01  1.66666667E-01
                       5.00000000E-01  3.33333333E-01  1.66666667E-01
                      -3.33333333E-01  3.33333333E-01  1.66666667E-01
                      -1.66666667E-01  3.33333333E-01  1.66666667E-01
                       0.00000000E+00  5.00000000E-01  1.66666667E-01
                       1.66666667E-01  5.00000000E-01  1.66666667E-01
                       3.33333333E-01  5.00000000E-01  1.66666667E-01
                       5.00000000E-01  5.00000000E-01  1.66666667E-01
                      -3.33333333E-01  5.00000000E-01  1.66666667E-01
                      -1.66666667E-01  5.00000000E-01  1.66666667E-01
                       0.00000000E+00 -3.33333333E-01  1.66666667E-01
                       1.66666667E-01 -3.33333333E-01  1.66666667E-01
                       3.33333333E-01 -3.33333333E-01  1.66666667E-01
                       5.00000000E-01 -3.33333333E-01  1.66666667E-01
                      -3.33333333E-01 -3.33333333E-01  1.66666667E-01
                      -1.66666667E-01 -3.33333333E-01  1.66666667E-01
                       outvar_i_n : Printing only first  50 k-points.
           kptopt           2
         kptrlatt        6    0    0      0    6    0      0    0    6
          kptrlen      5.75486009E+01
P           mkmem           4
            natom          12
            nband          50
            ngfft          45      45      45
             nkpt         112
            nstep         100
             nsym           1
           ntypat           2
              occ      2.000000  2.000000  2.000000  2.000000  2.000000  2.000000
                       2.000000  2.000000  2.000000  2.000000  2.000000  2.000000
                       2.000000  2.000000  2.000000  2.000000  2.000000  2.000000
                       2.000000  2.000000  2.000000  2.000000  2.000000  2.000000
                       2.000000  2.000000  2.000000  2.000000  2.000000  2.000000
                       2.000000  2.000000  2.000000  2.000000  2.000000  2.000000
                       2.000000  2.000000  2.000000  2.000000  2.000000  2.000000
                       2.000000  2.000000  2.000000  2.000000  2.000000  2.000000
                       0.000000  0.000000
        pawecutdg      2.50000000E+01 Hartree
         pawxcdev           0
          spgroup           1
        symmorphi           0
           tolmxf      1.00000000E-05
           tolvrs      1.00000000E-18
           tsmear      4.00000000E-02 Hartree
            typat      1  1  1  1  2  2  2  2  2  2  2  2
              wtk        0.00463    0.00926    0.00926    0.00463    0.00926    0.00926
                         0.00926    0.00926    0.00926    0.00926    0.00926    0.00926
                         0.00926    0.00926    0.00926    0.00926    0.00463    0.00926
                         0.00926    0.00463    0.00926    0.00926    0.00926    0.00926
                         0.00926    0.00926    0.00926    0.00926    0.00926    0.00926
                         0.00926    0.00926    0.00926    0.00926    0.00926    0.00926
                         0.00926    0.00926    0.00926    0.00926    0.00926    0.00926
                         0.00926    0.00926    0.00926    0.00926    0.00926    0.00926
                         0.00926    0.00926
                       outvars : Printing only first  50 k-points.
           xangst      8.3185006622E-02 -7.9077349440E-05  1.5522274627E-01
                       8.3004417913E-02  2.5378342989E+00  2.3823846240E+00
                       2.4546407653E+00 -1.5175948320E-05  2.6931616018E+00
                       2.4547377594E+00  2.5378279544E+00 -1.5520102284E-01
                       1.0617342148E+00  1.5464752707E+00  3.7386088264E+00
                       1.0623623670E+00  4.0833268381E+00  3.8739981817E+00
                       1.4755741030E+00  4.0830302219E+00  1.3365766788E+00
                       1.4758973152E+00  1.5463528480E+00  1.2011648387E+00
                       4.1759453462E+00  9.9143404505E-01  1.8756145370E+00
                       4.1758275930E+00  3.5301504777E+00  6.6221199626E-01
                       3.4378823360E+00  3.5301964623E+00  3.2003359578E+00
                       3.4370487248E+00  9.9130583621E-01  4.4137610341E+00
            xcart      1.5719688088E-01 -1.4943453376E-04  2.9332848004E-01
                       1.5685561768E-01  4.7958117955E+00  4.5020544825E+00
                       4.6385988010E+00 -2.8678386132E-05  5.0893378591E+00
                       4.6387820933E+00  4.7957998062E+00 -2.9328742871E-01
                       2.0063868918E+00  2.9224147329E+00  7.0649468000E+00
                       2.0075739276E+00  7.7163694351E+00  7.3207956027E+00
                       2.7884309435E+00  7.7158089117E+00  2.5257638784E+00
                       2.7890417260E+00  2.9221833876E+00  2.2698725857E+00
                       7.8913930502E+00  1.8735388240E+00  3.5443978058E+00
                       7.8911705289E+00  6.6710176106E+00  1.2513993148E+00
                       6.4966560922E+00  6.6711045090E+00  6.0477584935E+00
                       6.4950807952E+00  1.8732965444E+00  8.3407995704E+00
             xred      1.6389300000E-02 -1.5580000000E-05  3.0582340000E-02
                       1.6353720000E-02  5.0000991000E-01  4.6938286000E-01
                       4.8361893000E-01 -2.9900000000E-06  5.3061285000E-01
                       4.8363804000E-01  5.0000866000E-01 -3.0578060000E-02
                       2.0918530000E-01  3.0469009000E-01  7.3658925000E-01
                       2.0930906000E-01  8.0450638000E-01  7.6326397000E-01
                       2.9072098000E-01  8.0444794000E-01  2.6333539000E-01
                       2.9078466000E-01  3.0466597000E-01  2.3665624000E-01
                       8.2275429000E-01  1.9533460000E-01  3.6953786000E-01
                       8.2273109000E-01  6.9551831000E-01  1.3047052000E-01
                       6.7733943000E-01  6.9552737000E-01  6.3053750000E-01
                       6.7717519000E-01  1.9530934000E-01  8.6960928000E-01
            znucl       72.00000    8.00000
 
================================================================================
 
 chkinp: Checking input parameters for consistency.
 
================================================================================
== DATASET  1 ==================================================================
-   mpi_nproc: 36, omp_nthreads: -1 (-1 if OMP is not activated)
-    --> not optimal distribution: autoparal keyword recommended in input file <--
 

--- !DatasetInfo
iteration_state: {dtset: 1, }
dimensions: {natom: 12, nkpt: 112, mband: 50, nsppol: 1, nspinor: 1, nspden: 1, mpw: 5280, }
cutoff_energies: {ecut:  25.0, pawecutdg:  25.0, }
electrons: {nelect:   9.60000000E+01, charge:   0.00000000E+00, occopt:   1.00000000E+00, tsmear:   4.00000000E-02, }
meta: {optdriver: 0, ionmov: 0, optcell: 0, iscf: 7, paral_kgb: 0, }
...

 Exchange-correlation functional for the present dataset will be:
  GGA: Perdew-Burke-Ernzerhof functional - ixc=11
 Citation for XC functional:
  J.P.Perdew, K.Burke, M.Ernzerhof, PRL 77, 3865 (1996)
 
 Real(R)+Recip(G) space primitive vectors, cartesian coordinates (Bohr,Bohr^-1):
 R(1)=  9.5914335  0.0000000  0.0000000  G(1)=  0.1042597  0.0000000  0.0000000
 R(2)=  0.0000000  9.5914335  0.0000000  G(2)=  0.0000000  0.1042597  0.0000000
 R(3)=  0.0000000  0.0000000  9.5914335  G(3)=  0.0000000  0.0000000  0.1042597
 Unit cell volume ucvol=  8.8236964E+02 bohr^3
 Angles (23,13,12)=  9.00000000E+01  9.00000000E+01  9.00000000E+01 degrees
 
 getcut: wavevector=  0.0000  0.0000  0.0000  ngfft=  45  45  45
         ecut(hartree)=     25.000   => boxcut(ratio)=   2.03814
 
--- Pseudopotential description ------------------------------------------------
- pspini: atom type   1  psp file is /workspace/jiahaoz/PACKAGE_INSTALL/abinit-9.4.1/pbe_s_sr/Hf.psp8
- pspatm: opening atomic psp file    /workspace/jiahaoz/PACKAGE_INSTALL/abinit-9.4.1/pbe_s_sr/Hf.psp8
- Hf    ONCVPSP  r_core=  1.72  1.72  1.72  2.43
- 72.00000  12.00000    160625                znucl, zion, pspdat
    8   11    3    4       600   0.00000      pspcod,pspxc,lmax,lloc,mmax,r2well
    5.99000000000000    5.40000000000000    0.00000000000000   rchrg,fchrg,qchrg
     nproj     2     2     2     2
     extension_switch     1
  pspatm : epsatm=   21.98649506
         --- l  ekb(1:nproj) -->
             0    5.812335   -0.521211
             1   -3.038329    2.466565
             2    2.060039    0.471534
             3    9.947446    0.353012
 pspatm: atomic psp has been read  and splines computed
 
- pspini: atom type   2  psp file is /workspace/jiahaoz/PACKAGE_INSTALL/abinit-9.4.1/pbe_s_sr/O.psp8
- pspatm: opening atomic psp file    /workspace/jiahaoz/PACKAGE_INSTALL/abinit-9.4.1/pbe_s_sr/O.psp8
- O     ONCVPSP  r_core=  1.36  1.46  1.26
-  8.00000   6.00000    151103                znucl, zion, pspdat
    8   11    2    4       600   0.00000      pspcod,pspxc,lmax,lloc,mmax,r2well
    5.99000000000000    4.00000000000000    0.00000000000000   rchrg,fchrg,qchrg
     nproj     2     2     1
     extension_switch     1
  pspatm : epsatm=    6.19401560
         --- l  ekb(1:nproj) -->
             0    5.257212    0.704241
             1   -5.135443   -1.451781
             2   -4.371486
 pspatm: atomic psp has been read  and splines computed
 
   1.31998181E+04                                ecore*ucvol(ha*bohr**3)
--------------------------------------------------------------------------------
 
_setup2: Arith. and geom. avg. npw (full set) are    5268.875    5268.869
 
================================================================================

--- !BeginCycle
iteration_state: {dtset: 1, }
solver: {iscf: 7, nstep: 100, nline: 4, wfoptalg: 0, }
tolerances: {tolvrs: 1.00E-18, }
...
 
     iter   Etot(hartree)      deltaE(h)  residm     vres2
 ETOT  1  -357.50727308275    -3.575E+02 3.236E-01 1.289E+03
 ETOT  2  -357.48760223379     1.967E-02 3.871E-02 1.525E+03
 ETOT  3  -358.55329735898    -1.066E+00 6.721E-03 3.644E+01
 ETOT  4  -358.57390834919    -2.061E-02 5.362E-03 1.344E+00
 ETOT  5  -358.57442766987    -5.193E-04 2.291E-03 5.790E-01
 ETOT  6  -358.57463017012    -2.025E-04 3.128E-03 2.285E-03
 ETOT  7  -358.57463157933    -1.409E-06 2.171E-03 1.368E-04
 ETOT  8  -358.57463160687    -2.754E-08 5.852E-03 5.429E-05
 ETOT  9  -358.57463162721    -2.034E-08 1.470E-03 1.236E-05
 ETOT 10  -358.57463163281    -5.594E-09 1.716E-03 1.757E-07
 ETOT 11  -358.57463163283    -2.490E-11 4.164E-04 9.576E-08
 ETOT 12  -358.57463163287    -3.729E-11 6.409E-04 7.803E-09
 ETOT 13  -358.57463163287    -2.331E-12 4.566E-04 2.398E-10
 ETOT 14  -358.57463163287    -5.684E-14 5.178E-04 6.380E-11
 ETOT 15  -358.57463163287     2.274E-13 3.748E-04 6.925E-12
 ETOT 16  -358.57463163287    -1.478E-12 3.757E-04 8.537E-13
 ETOT 17  -358.57463163287     1.194E-12 2.452E-04 5.455E-14
 ETOT 18  -358.57463163287    -4.547E-13 3.520E-04 7.534E-15
 ETOT 19  -358.57463163287    -1.705E-13 2.322E-04 2.866E-15
 ETOT 20  -358.57463163287    -1.137E-13 3.649E-04 1.105E-16
 ETOT 21  -358.57463163287     3.411E-13 2.216E-04 1.986E-17
 ETOT 22  -358.57463163287     3.411E-13 3.164E-04 5.261E-18
 ETOT 23  -358.57463163287    -1.535E-12 1.787E-04 1.291E-18
 ETOT 24  -358.57463163287     4.547E-13 2.362E-04 3.723E-20
 
 At SCF step   24       vres2   =  3.72E-20 < tolvrs=  1.00E-18 =>converged.
 
 Cartesian components of stress tensor (hartree/bohr^3)
  sigma(1 1)= -5.60584368E-04  sigma(3 2)=  9.10848101E-07
  sigma(2 2)= -7.73505015E-04  sigma(3 1)=  2.44118729E-07
  sigma(3 3)= -9.44501712E-04  sigma(2 1)=  9.85819559E-09
 

--- !ResultsGS
iteration_state: {dtset: 1, }
comment   : Summary of ground state results
lattice_vectors:
- [  9.5914335,   0.0000000,   0.0000000, ]
- [  0.0000000,   9.5914335,   0.0000000, ]
- [  0.0000000,   0.0000000,   9.5914335, ]
lattice_lengths: [   9.59143,    9.59143,    9.59143, ]
lattice_angles: [ 90.000,  90.000,  90.000, ] # degrees, (23, 13, 12)
lattice_volume:   8.8236964E+02
convergence: {deltae:  4.547E-13, res2:  3.723E-20, residm:  2.362E-04, diffor: null, }
etotal    :  -3.58574632E+02
entropy   :   0.00000000E+00
fermie    :   2.74748197E-01
cartesian_stress_tensor: # hartree/bohr^3
- [ -5.60584368E-04,   9.85819559E-09,   2.44118729E-07, ]
- [  9.85819559E-09,  -7.73505015E-04,   9.10848101E-07, ]
- [  2.44118729E-07,   9.10848101E-07,  -9.44501712E-04, ]
pressure_GPa:   2.2346E+01
xred      :
- [  1.6389E-02,  -1.5580E-05,   3.0582E-02, Hf]
- [  1.6354E-02,   5.0001E-01,   4.6938E-01, Hf]
- [  4.8362E-01,  -2.9900E-06,   5.3061E-01, Hf]
- [  4.8364E-01,   5.0001E-01,  -3.0578E-02, Hf]
- [  2.0919E-01,   3.0469E-01,   7.3659E-01,  O]
- [  2.0931E-01,   8.0451E-01,   7.6326E-01,  O]
- [  2.9072E-01,   8.0445E-01,   2.6334E-01,  O]
- [  2.9078E-01,   3.0467E-01,   2.3666E-01,  O]
- [  8.2275E-01,   1.9533E-01,   3.6954E-01,  O]
- [  8.2273E-01,   6.9552E-01,   1.3047E-01,  O]
- [  6.7734E-01,   6.9553E-01,   6.3054E-01,  O]
- [  6.7718E-01,   1.9531E-01,   8.6961E-01,  O]
cartesian_forces: # hartree/bohr
- [ -6.22333958E-03,   6.23303714E-02,   3.95307122E-03, ]
- [ -6.40917411E-03,   6.23880051E-02,  -4.16455626E-03, ]
- [  6.38464528E-03,   6.22917362E-02,   3.92733257E-03, ]
- [  6.46847453E-03,   6.23584379E-02,  -4.18984557E-03, ]
- [  9.64921511E-03,  -2.83137147E-02,   1.33853813E-02, ]
- [  9.37242601E-03,  -2.78916168E-02,  -1.29478308E-02, ]
- [ -9.61607435E-03,  -2.78258599E-02,  -1.30867732E-02, ]
- [ -9.77199994E-03,  -2.83124015E-02,   1.31747146E-02, ]
- [ -2.66772447E-02,  -3.38795252E-02,  -7.52231546E-03, ]
- [ -2.68654199E-02,  -3.46573442E-02,   7.74827216E-03, ]
- [  2.68843963E-02,  -3.45917975E-02,   7.51460761E-03, ]
- [  2.68040953E-02,  -3.38962910E-02,  -7.79205822E-03, ]
force_length_stats: {min:   3.21470213E-02, max:   6.28544686E-02, mean:   4.64762026E-02, }
...

