  12  12   0   0
  0.1089614E+02  0.5075568E-09  0.5075568E-09  0.5075568E-09  0.3000000E-15
  1.000000000000000E-004
  CAR 
 MoSe2                                   
     12.80894243    -15.62462229  301      4.09523957      1.00000000
    -15.625  0.0000E+00  0.0000E+00
    -15.530  0.0000E+00  0.0000E+00
    -15.435  0.0000E+00  0.0000E+00
    -15.340  0.0000E+00  0.0000E+00
    -15.246  0.0000E+00  0.0000E+00
    -15.151  0.0000E+00  0.0000E+00
    -15.056  0.0000E+00  0.0000E+00
    -14.961  0.0000E+00  0.0000E+00
    -14.866  0.0000E+00  0.0000E+00
    -14.772  0.0000E+00  0.0000E+00
    -14.677  0.0000E+00  0.0000E+00
    -14.582  0.3253E-15  0.3083E-16
    -14.487  0.2372E-08  0.2248E-09
    -14.393  0.1814E-04  0.1719E-05
    -14.298  0.3261E-03  0.3262E-04
    -14.203  0.8455E-04  0.4064E-04
    -14.108  0.1264E-02  0.1605E-03
    -14.013  0.1212E-02  0.2753E-03
    -13.919  0.2505E-02  0.5127E-03
    -13.824  0.2708E-02  0.7694E-03
    -13.729  0.3029E-02  0.1057E-02
    -13.634  0.1941E-02  0.1240E-02
    -13.539  0.1948E-02  0.1425E-02
    -13.445  0.2959E-02  0.1706E-02
    -13.350  0.8583E-02  0.2519E-02
    -13.255  0.7431E-02  0.3223E-02
    -13.160  0.1695E-02  0.3384E-02
    -13.066  0.4424E-02  0.3803E-02
    -12.971  0.4764E-02  0.4255E-02
    -12.876  0.1664E-01  0.5832E-02
    -12.781  0.1492E-01  0.7246E-02
    -12.686  0.1146E-01  0.8332E-02
    -12.592  0.9957E-02  0.9276E-02
    -12.497  0.8056E-02  0.1004E-01
    -12.402  0.8041E-02  0.1080E-01
    -12.307  0.1087E-01  0.1183E-01
    -12.213  0.2050E-01  0.1378E-01
    -12.118  0.1852E-01  0.1553E-01
    -12.023  0.1892E-01  0.1732E-01
    -11.928  0.1772E-01  0.1900E-01
    -11.833  0.9324E-02  0.1989E-01
    -11.739  0.1169E-02  0.2000E-01
    -11.644  0.1828E-04  0.2000E-01
    -11.549  0.2048E-08  0.2000E-01
    -11.454  0.2578E-15  0.2000E-01
    -11.360  0.0000E+00  0.2000E-01
    -11.265  0.0000E+00  0.2000E-01
    -11.170  0.0000E+00  0.2000E-01
    -11.075  0.0000E+00  0.2000E-01
    -10.980  0.0000E+00  0.2000E-01
    -10.886  0.0000E+00  0.2000E-01
    -10.791  0.0000E+00  0.2000E-01
    -10.696  0.0000E+00  0.2000E-01
    -10.601  0.0000E+00  0.2000E-01
    -10.507  0.0000E+00  0.2000E-01
    -10.412  0.0000E+00  0.2000E-01
    -10.317  0.0000E+00  0.2000E-01
    -10.222  0.0000E+00  0.2000E-01
    -10.127  0.0000E+00  0.2000E-01
    -10.033  0.0000E+00  0.2000E-01
     -9.938  0.0000E+00  0.2000E-01
     -9.843  0.0000E+00  0.2000E-01
     -9.748  0.0000E+00  0.2000E-01
     -9.654  0.0000E+00  0.2000E-01
     -9.559  0.0000E+00  0.2000E-01
     -9.464  0.0000E+00  0.2000E-01
     -9.369  0.0000E+00  0.2000E-01
     -9.274  0.0000E+00  0.2000E-01
     -9.180  0.0000E+00  0.2000E-01
     -9.085  0.0000E+00  0.2000E-01
     -8.990  0.0000E+00  0.2000E-01
     -8.895  0.0000E+00  0.2000E-01
     -8.801  0.0000E+00  0.2000E-01
     -8.706  0.0000E+00  0.2000E-01
     -8.611  0.0000E+00  0.2000E-01
     -8.516  0.0000E+00  0.2000E-01
     -8.421  0.0000E+00  0.2000E-01
     -8.327  0.0000E+00  0.2000E-01
     -8.232  0.0000E+00  0.2000E-01
     -8.137  0.0000E+00  0.2000E-01
     -8.042  0.0000E+00  0.2000E-01
     -7.948  0.0000E+00  0.2000E-01
     -7.853  0.0000E+00  0.2000E-01
     -7.758  0.0000E+00  0.2000E-01
     -7.663  0.0000E+00  0.2000E-01
     -7.568  0.0000E+00  0.2000E-01
     -7.474  0.0000E+00  0.2000E-01
     -7.379  0.0000E+00  0.2000E-01
     -7.284  0.0000E+00  0.2000E-01
     -7.189  0.0000E+00  0.2000E-01
     -7.095  0.0000E+00  0.2000E-01
     -7.000  0.0000E+00  0.2000E-01
     -6.905  0.0000E+00  0.2000E-01
     -6.810  0.0000E+00  0.2000E-01
     -6.715  0.0000E+00  0.2000E-01
     -6.621  0.0000E+00  0.2000E-01
     -6.526  0.0000E+00  0.2000E-01
     -6.431  0.0000E+00  0.2000E-01
     -6.336  0.0000E+00  0.2000E-01
     -6.242  0.0000E+00  0.2000E-01
     -6.147  0.0000E+00  0.2000E-01
     -6.052  0.0000E+00  0.2000E-01
     -5.957  0.0000E+00  0.2000E-01
     -5.862  0.0000E+00  0.2000E-01
     -5.768  0.0000E+00  0.2000E-01
     -5.673  0.0000E+00  0.2000E-01
     -5.578  0.0000E+00  0.2000E-01
     -5.483  0.0000E+00  0.2000E-01
     -5.389  0.0000E+00  0.2000E-01
     -5.294  0.0000E+00  0.2000E-01
     -5.199  0.0000E+00  0.2000E-01
     -5.104  0.0000E+00  0.2000E-01
     -5.009  0.0000E+00  0.2000E-01
     -4.915  0.0000E+00  0.2000E-01
     -4.820  0.0000E+00  0.2000E-01
     -4.725  0.0000E+00  0.2000E-01
     -4.630  0.0000E+00  0.2000E-01
     -4.536  0.0000E+00  0.2000E-01
     -4.441  0.0000E+00  0.2000E-01
     -4.346  0.0000E+00  0.2000E-01
     -4.251  0.0000E+00  0.2000E-01
     -4.156  0.0000E+00  0.2000E-01
     -4.062  0.0000E+00  0.2000E-01
     -3.967  0.0000E+00  0.2000E-01
     -3.872  0.0000E+00  0.2000E-01
     -3.777  0.0000E+00  0.2000E-01
     -3.683  0.0000E+00  0.2000E-01
     -3.588  0.0000E+00  0.2000E-01
     -3.493  0.0000E+00  0.2000E-01
     -3.398  0.0000E+00  0.2000E-01
     -3.303  0.0000E+00  0.2000E-01
     -3.209  0.0000E+00  0.2000E-01
     -3.114  0.0000E+00  0.2000E-01
     -3.019  0.0000E+00  0.2000E-01
     -2.924  0.0000E+00  0.2000E-01
     -2.830  0.0000E+00  0.2000E-01
     -2.735  0.0000E+00  0.2000E-01
     -2.640  0.0000E+00  0.2000E-01
     -2.545  0.0000E+00  0.2000E-01
     -2.450  0.0000E+00  0.2000E-01
     -2.356  0.2288E-19  0.2000E-01
     -2.261  0.2826E-11  0.2000E-01
     -2.166  0.5635E-06  0.2000E-01
     -2.071  0.1596E-03  0.2002E-01
     -1.977  0.5805E-03  0.2007E-01
     -1.882  0.2246E-02  0.2028E-01
     -1.787  0.4075E-02  0.2067E-01
     -1.692  0.3062E-02  0.2096E-01
     -1.597  0.2778E-02  0.2122E-01
     -1.503  0.5733E-02  0.2177E-01
     -1.408  0.6837E-02  0.2241E-01
     -1.313  0.9851E-02  0.2335E-01
     -1.218  0.8539E-02  0.2416E-01
     -1.124  0.9270E-02  0.2504E-01
     -1.029  0.1258E-01  0.2623E-01
     -0.934  0.5923E-02  0.2679E-01
     -0.839  0.1303E-01  0.2802E-01
     -0.744  0.1783E-01  0.2971E-01
     -0.650  0.1784E-01  0.3141E-01
     -0.555  0.4826E-02  0.3186E-01
     -0.460  0.1188E-01  0.3299E-01
     -0.365  0.1292E-01  0.3421E-01
     -0.270  0.6943E-02  0.3487E-01
     -0.176  0.1121E-01  0.3593E-01
     -0.081  0.1194E-01  0.3707E-01
      0.014  0.1430E-01  0.3842E-01
      0.109  0.8856E-02  0.3926E-01
      0.203  0.9783E-02  0.4019E-01
      0.298  0.1303E-01  0.4142E-01
      0.393  0.1424E-01  0.4277E-01
      0.488  0.7441E-02  0.4348E-01
      0.583  0.9089E-02  0.4434E-01
      0.677  0.9666E-02  0.4525E-01
      0.772  0.1112E-01  0.4631E-01
      0.867  0.1058E-01  0.4731E-01
      0.962  0.1007E-01  0.4827E-01
      1.056  0.5950E-02  0.4883E-01
      1.151  0.8440E-02  0.4963E-01
      1.246  0.9641E-02  0.5054E-01
      1.341  0.7716E-02  0.5127E-01
      1.436  0.1337E-01  0.5254E-01
      1.530  0.1258E-01  0.5373E-01
      1.625  0.1374E-01  0.5504E-01
      1.720  0.1025E-01  0.5601E-01
      1.815  0.8233E-02  0.5679E-01
      1.909  0.1295E-01  0.5802E-01
      2.004  0.1486E-01  0.5942E-01
      2.099  0.1317E-01  0.6067E-01
      2.194  0.1658E-01  0.6224E-01
      2.289  0.1673E-01  0.6383E-01
      2.383  0.1656E-01  0.6540E-01
      2.478  0.1090E-01  0.6643E-01
      2.573  0.1109E-01  0.6748E-01
      2.668  0.1081E-01  0.6851E-01
      2.762  0.1332E-01  0.6977E-01
      2.857  0.1097E-01  0.7081E-01
      2.952  0.1423E-01  0.7216E-01
      3.047  0.1726E-01  0.7379E-01
      3.142  0.1045E-01  0.7478E-01
      3.236  0.8476E-02  0.7559E-01
      3.331  0.1224E-01  0.7675E-01
      3.426  0.1091E-01  0.7778E-01
      3.521  0.6180E-02  0.7837E-01
      3.615  0.5458E-02  0.7889E-01
      3.710  0.6335E-02  0.7949E-01
      3.805  0.4247E-02  0.7989E-01
      3.900  0.1107E-02  0.7999E-01
      3.995  0.7284E-04  0.8000E-01
      4.089  0.4017E-07  0.8000E-01
      4.184  0.2971E-13  0.8000E-01
      4.279  0.0000E+00  0.8000E-01
      4.374  0.0000E+00  0.8000E-01
      4.468  0.0000E+00  0.8000E-01
      4.563  0.0000E+00  0.8000E-01
      4.658  0.0000E+00  0.8000E-01
      4.753  0.0000E+00  0.8000E-01
      4.848  0.0000E+00  0.8000E-01
      4.942  0.0000E+00  0.8000E-01
      5.037  0.0000E+00  0.8000E-01
      5.132  0.0000E+00  0.8000E-01
      5.227  0.0000E+00  0.8000E-01
      5.321  0.0000E+00  0.8000E-01
      5.416  0.0000E+00  0.8000E-01
      5.511  0.0000E+00  0.8000E-01
      5.606  0.0000E+00  0.8000E-01
      5.701  0.0000E+00  0.8000E-01
      5.795  0.0000E+00  0.8000E-01
      5.890  0.0000E+00  0.8000E-01
      5.985  0.0000E+00  0.8000E-01
      6.080  0.0000E+00  0.8000E-01
      6.174  0.0000E+00  0.8000E-01
      6.269  0.0000E+00  0.8000E-01
      6.364  0.0000E+00  0.8000E-01
      6.459  0.0000E+00  0.8000E-01
      6.554  0.0000E+00  0.8000E-01
      6.648  0.0000E+00  0.8000E-01
      6.743  0.0000E+00  0.8000E-01
      6.838  0.0000E+00  0.8000E-01
      6.933  0.0000E+00  0.8000E-01
      7.027  0.0000E+00  0.8000E-01
      7.122  0.0000E+00  0.8000E-01
      7.217  0.0000E+00  0.8000E-01
      7.312  0.0000E+00  0.8000E-01
      7.407  0.0000E+00  0.8000E-01
      7.501  0.0000E+00  0.8000E-01
      7.596  0.0000E+00  0.8000E-01
      7.691  0.0000E+00  0.8000E-01
      7.786  0.2216E-15  0.8000E-01
      7.880  0.3933E-08  0.8000E-01
      7.975  0.7960E-04  0.8001E-01
      8.070  0.4401E-02  0.8042E-01
      8.165  0.1108E-01  0.8148E-01
      8.260  0.1059E-01  0.8248E-01
      8.354  0.7207E-02  0.8316E-01
      8.449  0.4756E-02  0.8361E-01
      8.544  0.6340E-02  0.8421E-01
      8.639  0.9031E-02  0.8507E-01
      8.733  0.1417E-01  0.8641E-01
      8.828  0.1364E-01  0.8770E-01
      8.923  0.1023E-01  0.8867E-01
      9.018  0.4955E-02  0.8914E-01
      9.113  0.5466E-02  0.8966E-01
      9.207  0.8760E-02  0.9049E-01
      9.302  0.1263E-01  0.9169E-01
      9.397  0.3625E-02  0.9203E-01
      9.492  0.7298E-02  0.9272E-01
      9.586  0.1355E-01  0.9401E-01
      9.681  0.1184E-01  0.9513E-01
      9.776  0.1407E-01  0.9647E-01
      9.871  0.1061E-01  0.9747E-01
      9.966  0.8998E-02  0.9832E-01
     10.060  0.1196E-01  0.9946E-01
     10.155  0.4991E-02  0.9993E-01
     10.250  0.3294E-02  0.1002E+00
     10.345  0.3868E-02  0.1006E+00
     10.439  0.9125E-02  0.1015E+00
     10.534  0.7476E-02  0.1022E+00
     10.629  0.4678E-02  0.1026E+00
     10.724  0.5582E-02  0.1032E+00
     10.819  0.8398E-02  0.1040E+00
     10.913  0.5801E-02  0.1045E+00
     11.008  0.2116E-02  0.1047E+00
     11.103  0.9773E-03  0.1048E+00
     11.198  0.7962E-03  0.1049E+00
     11.292  0.4744E-03  0.1049E+00
     11.387  0.4899E-03  0.1050E+00
     11.482  0.7422E-04  0.1050E+00
     11.577  0.3261E-03  0.1050E+00
     11.672  0.1814E-04  0.1050E+00
     11.766  0.2372E-08  0.1050E+00
     11.861  0.3253E-15  0.1050E+00
     11.956  0.0000E+00  0.1050E+00
     12.051  0.0000E+00  0.1050E+00
     12.145  0.0000E+00  0.1050E+00
     12.240  0.0000E+00  0.1050E+00
     12.335  0.0000E+00  0.1050E+00
     12.430  0.0000E+00  0.1050E+00
     12.525  0.0000E+00  0.1050E+00
     12.619  0.0000E+00  0.1050E+00
     12.714  0.0000E+00  0.1050E+00
     12.809  0.0000E+00  0.1050E+00
