 vasp.5.4.4.18Apr17-6-g9f103f2a35 (build May 01 2019 17:50:46) complex          
  
 executed on             LinuxIFC date 2021.07.28  07:28:54
 running on   36 total cores
 distrk:  each k-point on   36 cores,    1 groups
 distr:  one band on NCORES_PER_BAND=   6 cores,    6 groups


--------------------------------------------------------------------------------------------------------


 INCAR:
 POTCAR:    PAW Hf 21Jan2003                      
 POTCAR:    PAW O 22Mar2012                       
 POTCAR:    PAW Hf 21Jan2003                      
   VRHFIN =Hf: 6s6d                                                             
   LEXCH  = CA                                                                  
   EATOM  =    77.1027 eV,    5.6669 Ry                                         
                                                                                
   TITEL  = PAW Hf 21Jan2003                                                    
   LULTRA =        F    use ultrasoft PP ?                                      
   IUNSCR =        1    unscreen: 0-lin 1-nonlin 2-no                           
   RPACOR =    2.500    partial core radius                                     
   POMASS =  178.490; ZVAL   =    4.000    mass and valenz                      
   RCORE  =    3.000    outmost cutoff radius                                   
   RWIGS  =    3.050; RWIGS  =    1.614    wigner-seitz radius (au A)           
   ENMAX  =  220.431; ENMIN  =  165.323 eV                                      
   RCLOC  =    2.212    cutoff for local pot                                    
   LCOR   =        T    correct aug charges                                     
   LPAW   =        T    paw PP                                                  
   EAUG   =  335.116                                                            
   DEXC   =    0.000                                                            
   RMAX   =    3.077    core radius for proj-oper                               
   RAUG   =    1.300    factor for augmentation sphere                          
   RDEP   =    3.047    radius for radial grids                                 
   RDEPT  =    2.344    core radius for aug-charge                              
                                                                                
   Atomic configuration                                                         
   16 entries                                                                   
     n  l   j            E        occ.                                          
     1  0  0.50    -64817.2884   2.0000                                         
     2  0  0.50    -11096.0092   2.0000                                         
     2  1  1.50     -9757.7489   6.0000                                         
     3  0  0.50     -2528.0217   2.0000                                         
     3  1  1.50     -2127.2943   6.0000                                         
     3  2  2.50     -1651.0971  10.0000                                         
     4  0  0.50      -507.3468   2.0000                                         
     4  1  1.50      -375.5456   6.0000                                         
     4  2  2.50      -204.7393  10.0000                                         
     4  3  3.50       -15.8626  14.0000                                         
     5  0  0.50       -65.4067   2.0000                                         
     5  1  1.50       -34.2860   6.0000                                         
     5  2  2.50        -2.1665   3.0000                                         
     6  0  0.50        -4.8862   1.0000                                         
     6  1  1.50        -1.3606   0.0000                                         
     5  3  2.50        -1.3606   0.0000                                         
   Description                                                                  
     l       E           TYP  RCUT    TYP  RCUT                                 
     2     -2.1664784     23  2.500                                             
     2     -0.1468636     23  2.500                                             
     0     -4.8862170     23  2.600                                             
     0      2.9583921     23  2.600                                             
     1     -1.3605826     23  3.000                                             
     1     27.2116520     23  3.000                                             
  local pseudopotential read in
  partial core-charges read in
  partial kinetic energy density read in
  atomic valenz-charges read in
  non local Contribution for L=           2  read in
    real space projection operators read in
  non local Contribution for L=           2  read in
    real space projection operators read in
  non local Contribution for L=           0  read in
    real space projection operators read in
  non local Contribution for L=           0  read in
    real space projection operators read in
  non local Contribution for L=           1  read in
    real space projection operators read in
  non local Contribution for L=           1  read in
    real space projection operators read in
    PAW grid and wavefunctions read in
 
   number of l-projection  operators is LMAX  =           6
   number of lm-projection operators is LMMAX =          18
 
 POTCAR:    PAW O 22Mar2012                       
   VRHFIN =O: s2p4                                                              
   LEXCH  = CA                                                                  
   EATOM  =   431.4380 eV,   31.7098 Ry                                         
                                                                                
   TITEL  = PAW O 22Mar2012                                                     
   LULTRA =        F    use ultrasoft PP ?                                      
   IUNSCR =        1    unscreen: 0-lin 1-nonlin 2-no                           
   RPACOR =    1.200    partial core radius                                     
   POMASS =   16.000; ZVAL   =    6.000    mass and valenz                      
   RCORE  =    1.520    outmost cutoff radius                                   
   RWIGS  =    1.550; RWIGS  =    0.820    wigner-seitz radius (au A)           
   ENMAX  =  400.000; ENMIN  =  300.000 eV                                      
   ICORE  =        2    local potential                                         
   LCOR   =        T    correct aug charges                                     
   LPAW   =        T    paw PP                                                  
   EAUG   =  605.392                                                            
   DEXC   =    0.000                                                            
   RMAX   =    1.553    core radius for proj-oper                               
   RAUG   =    1.300    factor for augmentation sphere                          
   RDEP   =    1.550    radius for radial grids                                 
   RDEPT  =    1.329    core radius for aug-charge                              
                                                                                
   Atomic configuration                                                         
    4 entries                                                                   
     n  l   j            E        occ.                                          
     1  0  0.50      -510.4605   2.0000                                         
     2  0  0.50       -23.7367   2.0000                                         
     2  1  0.50        -9.1995   4.0000                                         
     3  2  1.50        -9.5241   0.0000                                         
   Description                                                                  
     l       E           TYP  RCUT    TYP  RCUT                                 
     0    -23.7366993     23  1.200                                             
     0     -9.5240782     23  1.200                                             
     1     -9.1994509     23  1.520                                             
     1      8.1634956     23  1.520                                             
     2     -9.5240782      7  1.500                                             
  local pseudopotential read in
  partial core-charges read in
  partial kinetic energy density read in
  kinetic energy density of atom read in
  atomic valenz-charges read in
  non local Contribution for L=           0  read in
    real space projection operators read in
  non local Contribution for L=           0  read in
    real space projection operators read in
  non local Contribution for L=           1  read in
    real space projection operators read in
  non local Contribution for L=           1  read in
    real space projection operators read in
    PAW grid and wavefunctions read in
 
   number of l-projection  operators is LMAX  =           4
   number of lm-projection operators is LMMAX =           8
 
  PAW Hf 21Jan2003                      :
 energy of atom  1       EATOM=  -77.1027
 kinetic energy error for atom=    0.0008 (will be added to EATOM!!)
  PAW O 22Mar2012                       :
 energy of atom  2       EATOM= -431.4380
 kinetic energy error for atom=    0.0220 (will be added to EATOM!!)
 
 
 POSCAR: HfO2                                    
  positions in direct lattice
  No initial velocities read in
 exchange correlation table for  LEXCH =        2
   RHO(1)=    0.500       N(1)  =     2000
   RHO(2)=  100.500       N(2)  =     4000
 


--------------------------------------------------------------------------------------------------------


 ion  position               nearest neighbor table
   1  0.000  0.000  0.000-  12 1.74   6 2.01   7 2.09  10 2.11   8 2.33   5 2.41   9 2.47  11 2.74
                             4 3.59   2 3.59   3 3.59   2 3.59   3 3.59   2 3.59   4 3.59   2 3.59
   2  0.000  0.500  0.500-  11 1.74   5 2.01   8 2.09   9 2.11   7 2.33   6 2.41  10 2.47  12 2.74
                             4 3.59   1 3.59   3 3.59   1 3.59   4 3.59   1 3.59   3 3.59   1 3.59
   3  0.500  0.000  0.500-   9 1.74   7 2.01   6 2.09  11 2.11   5 2.33   8 2.41  12 2.47  10 2.74
                             4 3.59   1 3.59   2 3.59   1 3.59   4 3.59   2 3.59   4 3.59   4 3.59
   4  0.500  0.500  0.000-  10 1.74   8 2.01   5 2.09  12 2.11   6 2.33   7 2.41  11 2.47   9 2.74
                             3 3.59   1 3.59   2 3.59   2 3.59   3 3.59   1 3.59   3 3.59   3 3.59
   5  0.250  0.305  0.737-   2 2.01   4 2.09   3 2.33   1 2.41
   6  0.250  0.805  0.763-   1 2.01   3 2.09   4 2.33   2 2.41
   7  0.250  0.805  0.263-   3 2.01   1 2.09   2 2.33   4 2.41
   8  0.250  0.305  0.237-   4 2.01   2 2.09   1 2.33   3 2.41
   9  0.750  0.195  0.370-   3 1.74   2 2.11   1 2.47   4 2.74
  10  0.750  0.695  0.130-   4 1.74   1 2.11   2 2.47   3 2.74
  11  0.750  0.695  0.630-   2 1.74   3 2.11   4 2.47   1 2.74
  12  0.750  0.195  0.870-   1 1.74   4 2.11   3 2.47   2 2.74
 
  LATTYP: Found a simple cubic cell.
 ALAT       =     5.0755680000
  
  Lattice vectors:
  
 A1 = (   5.0755680000,   0.0000000000,   0.0000000000)
 A2 = (   0.0000000000,   5.0755680000,   0.0000000000)
 A3 = (   0.0000000000,   0.0000000000,   5.0755680000)


Analysis of symmetry for initial positions (statically):
=====================================================================
 Subroutine PRICEL returns:
 Original cell was already a primitive cell.
 

 Routine SETGRP: Setting up the symmetry group for a 
 simple cubic supercell.


 Subroutine GETGRP returns: Found  4 space group operations
 (whereof  1 operations were pure point group operations)
 out of a pool of 48 trial point group operations.


The static configuration has the point symmetry C_1 .
 The point group associated with its full space group is C_2v.


Analysis of symmetry for dynamics (positions and initial velocities):
=====================================================================
 Subroutine PRICEL returns:
 Original cell was already a primitive cell.
 

 Routine SETGRP: Setting up the symmetry group for a 
 simple cubic supercell.


 Subroutine GETGRP returns: Found  4 space group operations
 (whereof  1 operations were pure point group operations)
 out of a pool of 48 trial point group operations.


The dynamic configuration has the point symmetry C_1 .
 The point group associated with its full space group is C_2v.


 Subroutine INISYM returns: Found  4 space group operations
 (whereof  1 operations are pure point group operations),
 and found     1 'primitive' translations

 
 
 KPOINTS: AUTO GRID                               

Automatic generation of k-mesh.
Space group operators:
 irot       det(A)        alpha          n_x          n_y          n_z        tau_x        tau_y        tau_z
    1     1.000000     0.000000     1.000000     0.000000     0.000000     0.000000     0.000000     0.000000
    2    -1.000000   180.000000     0.000000     0.000000     1.000000     0.000000     0.500000     0.500000
    3    -1.000000   180.000000     1.000000     0.000000     0.000000     0.500000     0.000000     0.500000
    4     1.000000   180.000000     0.000000     1.000000     0.000000     0.500000     0.500000     0.000000
 
 Subroutine IBZKPT returns following result:
 ===========================================
 
 Found     27 irreducible k-points:
 
 Following reciprocal coordinates:
            Coordinates               Weight
  0.000000  0.000000  0.000000      1.000000
  0.250000  0.000000  0.000000      2.000000
  0.500000  0.000000  0.000000      1.000000
  0.000000  0.250000  0.000000      2.000000
  0.250000  0.250000  0.000000      4.000000
  0.500000  0.250000  0.000000      2.000000
  0.000000  0.500000  0.000000      1.000000
  0.250000  0.500000  0.000000      2.000000
  0.500000  0.500000  0.000000      1.000000
  0.000000  0.000000  0.250000      2.000000
  0.250000  0.000000  0.250000      4.000000
  0.500000  0.000000  0.250000      2.000000
  0.000000  0.250000  0.250000      4.000000
  0.250000  0.250000  0.250000      8.000000
  0.500000  0.250000  0.250000      4.000000
  0.000000  0.500000  0.250000      2.000000
  0.250000  0.500000  0.250000      4.000000
  0.500000  0.500000  0.250000      2.000000
  0.000000  0.000000  0.500000      1.000000
  0.250000  0.000000  0.500000      2.000000
  0.500000  0.000000  0.500000      1.000000
  0.000000  0.250000  0.500000      2.000000
  0.250000  0.250000  0.500000      4.000000
  0.500000  0.250000  0.500000      2.000000
  0.000000  0.500000  0.500000      1.000000
  0.250000  0.500000  0.500000      2.000000
  0.500000  0.500000  0.500000      1.000000
 
 Following cartesian coordinates:
            Coordinates               Weight
  0.000000  0.000000  0.000000      1.000000
  0.049256  0.000000  0.000000      2.000000
  0.098511  0.000000  0.000000      1.000000
  0.000000  0.049256  0.000000      2.000000
  0.049256  0.049256  0.000000      4.000000
  0.098511  0.049256  0.000000      2.000000
  0.000000  0.098511  0.000000      1.000000
  0.049256  0.098511  0.000000      2.000000
  0.098511  0.098511  0.000000      1.000000
  0.000000  0.000000  0.049256      2.000000
  0.049256  0.000000  0.049256      4.000000
  0.098511  0.000000  0.049256      2.000000
  0.000000  0.049256  0.049256      4.000000
  0.049256  0.049256  0.049256      8.000000
  0.098511  0.049256  0.049256      4.000000
  0.000000  0.098511  0.049256      2.000000
  0.049256  0.098511  0.049256      4.000000
  0.098511  0.098511  0.049256      2.000000
  0.000000  0.000000  0.098511      1.000000
  0.049256  0.000000  0.098511      2.000000
  0.098511  0.000000  0.098511      1.000000
  0.000000  0.049256  0.098511      2.000000
  0.049256  0.049256  0.098511      4.000000
  0.098511  0.049256  0.098511      2.000000
  0.000000  0.098511  0.098511      1.000000
  0.049256  0.098511  0.098511      2.000000
  0.098511  0.098511  0.098511      1.000000
 


--------------------------------------------------------------------------------------------------------




 Dimension of arrays:
   k-points           NKPTS =     27   k-points in BZ     NKDIM =     27   number of bands    NBANDS=     42
   number of dos      NEDOS =    301   number of ions     NIONS =     12
   non local maximal  LDIM  =      6   non local SUM 2l+1 LMDIM =     18
   total plane-waves  NPLWV =  64000
   max r-space proj   IRMAX =      1   max aug-charges    IRDMAX=  33062
   dimension x,y,z NGX =    40 NGY =   40 NGZ =   40
   dimension x,y,z NGXF=    80 NGYF=   80 NGZF=   80
   support grid    NGXF=    80 NGYF=   80 NGZF=   80
   ions per type =               4   8
   NGX,Y,Z   is equivalent  to a cutoff of  13.10, 13.10, 13.10 a.u.
   NGXF,Y,Z  is equivalent  to a cutoff of  26.20, 26.20, 26.20 a.u.

 SYSTEM =  MoSe2                                   
 POSCAR =  HfO2                                    

 Startparameter for this run:
   NWRITE =      2    write-flag & timer
   PREC   = accura    normal or accurate (medium, high low for compatibility)
   ISTART =      0    job   : 0-new  1-cont  2-samecut
   ICHARG =      2    charge: 1-file 2-atom 10-const
   ISPIN  =      1    spin polarized calculation?
   LNONCOLLINEAR =      F non collinear calculations
   LSORBIT =      F    spin-orbit coupling
   INIWAV =      1    electr: 0-lowe 1-rand  2-diag
   LASPH  =      F    aspherical Exc in radial PAW
   METAGGA=      F    non-selfconsistent MetaGGA calc.

 Electronic Relaxation 1
   ENCUT  =  500.0 eV  36.75 Ry    6.06 a.u.   9.25  9.25  9.25*2*pi/ulx,y,z
   ENINI  =  500.0     initial cutoff
   ENAUG  =  605.4 eV  augmentation charge cutoff
   NELM   =    120;   NELMIN=  2; NELMDL=-12     # of ELM steps 
   EDIFF  = 0.1E-04   stopping-criterion for ELM
   LREAL  =      F    real-space projection
   NLSPLINE    = F    spline interpolate recip. space projectors
   LCOMPAT=      F    compatible to vasp.4.4
   GGA_COMPAT  = T    GGA compatible to vasp.4.4-vasp.4.6
   LMAXPAW     = -100 max onsite density
   LMAXMIX     =    2 max onsite mixed and CHGCAR
   VOSKOWN=      0    Vosko Wilk Nusair interpolation
   ROPT   =    0.00000   0.00000
 Ionic relaxation
   EDIFFG = -.1E-01   stopping-criterion for IOM
   NSW    =    800    number of steps for IOM
   NBLOCK =      1;   KBLOCK =    800    inner block; outer block 
   IBRION =      2    ionic relax: 0-MD 1-quasi-New 2-CG
   NFREE  =      1    steps in history (QN), initial steepest desc. (CG)
   ISIF   =      2    stress and relaxation
   IWAVPR =     11    prediction:  0-non 1-charg 2-wave 3-comb
   ISYM   =      2    0-nonsym 1-usesym 2-fastsym
   LCORR  =      T    Harris-Foulkes like correction to forces

   POTIM  = 0.3000    time-step for ionic-motion
   TEIN   =    0.0    initial temperature
   TEBEG  =    0.0;   TEEND  =   0.0 temperature during run
   SMASS  =  -3.00    Nose mass-parameter (am)
   estimated Nose-frequenzy (Omega)   =  0.10E-29 period in steps =****** mass=  -0.589E-27a.u.
   SCALEE = 1.0000    scale energy and forces
   NPACO  =    256;   APACO  = 16.0  distance and # of slots for P.C.
   PSTRESS=    0.0 pullay stress

  Mass of Ions in am
   POMASS = 178.49 16.00
  Ionic Valenz
   ZVAL   =   4.00  6.00
  Atomic Wigner-Seitz radii
   RWIGS  =  -1.00 -1.00
  virtual crystal weights 
   VCA    =   1.00  1.00
   NELECT =      64.0000    total number of electrons
   NUPDOWN=      -1.0000    fix difference up-down

 DOS related values:
   EMIN   =  10.00;   EMAX   =-10.00  energy-range for DOS
   EFERMI =   0.00
   ISMEAR =     0;   SIGMA  =   0.05  broadening in eV -4-tet -1-fermi 0-gaus

 Electronic relaxation 2 (details)
   IALGO  =     48    algorithm
   LDIAG  =      T    sub-space diagonalisation (order eigenvalues)
   LSUBROT=      F    optimize rotation matrix (better conditioning)
   TURBO    =      0    0=normal 1=particle mesh
   IRESTART =      0    0=no restart 2=restart with 2 vectors
   NREBOOT  =      0    no. of reboots
   NMIN     =      0    reboot dimension
   EREF     =   0.00    reference energy to select bands
   IMIX   =      4    mixing-type and parameters
     AMIX     =   0.40;   BMIX     =  1.00
     AMIX_MAG =   1.60;   BMIX_MAG =  1.00
     AMIN     =   0.01
     WC   =   100.;   INIMIX=   1;  MIXPRE=   1;  MAXMIX= -45

 Intra band minimization:
   WEIMIN = 0.0010     energy-eigenvalue tresh-hold
   EBREAK =  0.60E-07  absolut break condition
   DEPER  =   0.30     relativ break condition  

   TIME   =   0.40     timestep for ELM

  volume/ion in A,a.u.               =      10.90        73.53
  Fermi-wavevector in a.u.,A,eV,Ry     =   1.290180  2.438086 22.647760  1.664563
  Thomas-Fermi vector in A             =   2.422027
 
 Write flags
   LWAVE        =      F    write WAVECAR
   LDOWNSAMPLE  =      F    k-point downsampling of WAVECAR
   LCHARG       =      F    write CHGCAR
   LVTOT        =      F    write LOCPOT, total local potential
   LVHAR        =      F    write LOCPOT, Hartree potential only
   LELF         =      F    write electronic localiz. function (ELF)
   LORBIT       =      0    0 simple, 1 ext, 2 COOP (PROOUT), +10 PAW based schemes


 Dipole corrections
   LMONO  =      F    monopole corrections only (constant potential shift)
   LDIPOL =      F    correct potential (dipole corrections)
   IDIPOL =      0    1-x, 2-y, 3-z, 4-all directions 
   EPSILON=  1.0000000 bulk dielectric constant

 Exchange correlation treatment:
   GGA     =    --    GGA type
   LEXCH   =     2    internal setting for exchange type
   VOSKOWN=      0    Vosko Wilk Nusair interpolation
   LHFCALC =     F    Hartree Fock is set to
   LHFONE  =     F    Hartree Fock one center treatment
   AEXX    =    0.0000 exact exchange contribution

 Linear response parameters
   LEPSILON=     F    determine dielectric tensor
   LRPA    =     F    only Hartree local field effects (RPA)
   LNABLA  =     F    use nabla operator in PAW spheres
   LVEL    =     F    velocity operator in full k-point grid
   LINTERFAST=   F  fast interpolation
   KINTER  =     0    interpolate to denser k-point grid
   CSHIFT  =0.1000    complex shift for real part using Kramers Kronig
   OMEGAMAX=  -1.0    maximum frequency
   DEG_THRESHOLD= 0.2000000E-02 threshold for treating states as degnerate
   RTIME   =   -0.100 relaxation time in fs
  (WPLASMAI=    0.000 imaginary part of plasma frequency in eV, 0.658/RTIME)
   DFIELD  = 0.0000000 0.0000000 0.0000000 field for delta impulse in time
 
 Orbital magnetization related:
   ORBITALMAG=     F  switch on orbital magnetization
   LCHIMAG   =     F  perturbation theory with respect to B field
   DQ        =  0.001000  dq finite difference perturbation B field
   LLRAUG    =     F  two centre corrections for induced B field



--------------------------------------------------------------------------------------------------------


 conjugate gradient relaxation of ions
 charge density and potential will be updated during run
 non-spin polarized calculation
 RMM-DIIS sequential band-by-band
 perform sub-space diagonalisation
    before iterative eigenvector-optimisation
 modified Broyden-mixing scheme, WC =      100.0
 initial mixing is a Kerker type mixing with AMIX =  0.4000 and BMIX =      1.0000
 Hartree-type preconditioning will be used
 using additional bands           10
 reciprocal scheme for non local part
 use partial core corrections
 calculate Harris-corrections to forces 
   (improved forces if not selfconsistent)
 use of overlap-Matrix (Vanderbilt PP)
 Gauss-broadening in eV      SIGMA  =   0.05


--------------------------------------------------------------------------------------------------------


  energy-cutoff  :      500.00
  volume of cell :      130.75
      direct lattice vectors                 reciprocal lattice vectors
     5.075568000  0.000000000  0.000000000     0.197022284  0.000000000  0.000000000
     0.000000000  5.075568000  0.000000000     0.000000000  0.197022284  0.000000000
     0.000000000  0.000000000  5.075568000     0.000000000  0.000000000  0.197022284

  length of vectors
     5.075568000  5.075568000  5.075568000     0.197022284  0.197022284  0.197022284


 
 k-points in units of 2pi/SCALE and weight: AUTO GRID                               
   0.00000000  0.00000000  0.00000000       0.016
   0.04925557  0.00000000  0.00000000       0.031
   0.09851114  0.00000000  0.00000000       0.016
   0.00000000  0.04925557  0.00000000       0.031
   0.04925557  0.04925557  0.00000000       0.062
   0.09851114  0.04925557  0.00000000       0.031
   0.00000000  0.09851114  0.00000000       0.016
   0.04925557  0.09851114  0.00000000       0.031
   0.09851114  0.09851114  0.00000000       0.016
   0.00000000  0.00000000  0.04925557       0.031
   0.04925557  0.00000000  0.04925557       0.062
   0.09851114  0.00000000  0.04925557       0.031
   0.00000000  0.04925557  0.04925557       0.062
   0.04925557  0.04925557  0.04925557       0.125
   0.09851114  0.04925557  0.04925557       0.062
   0.00000000  0.09851114  0.04925557       0.031
   0.04925557  0.09851114  0.04925557       0.062
   0.09851114  0.09851114  0.04925557       0.031
   0.00000000  0.00000000  0.09851114       0.016
   0.04925557  0.00000000  0.09851114       0.031
   0.09851114  0.00000000  0.09851114       0.016
   0.00000000  0.04925557  0.09851114       0.031
   0.04925557  0.04925557  0.09851114       0.062
   0.09851114  0.04925557  0.09851114       0.031
   0.00000000  0.09851114  0.09851114       0.016
   0.04925557  0.09851114  0.09851114       0.031
   0.09851114  0.09851114  0.09851114       0.016
 
 k-points in reciprocal lattice and weights: AUTO GRID                               
   0.00000000  0.00000000  0.00000000       0.016
   0.25000000  0.00000000  0.00000000       0.031
   0.50000000  0.00000000  0.00000000       0.016
   0.00000000  0.25000000  0.00000000       0.031
   0.25000000  0.25000000  0.00000000       0.062
   0.50000000  0.25000000  0.00000000       0.031
   0.00000000  0.50000000  0.00000000       0.016
   0.25000000  0.50000000  0.00000000       0.031
   0.50000000  0.50000000  0.00000000       0.016
   0.00000000  0.00000000  0.25000000       0.031
   0.25000000  0.00000000  0.25000000       0.062
   0.50000000  0.00000000  0.25000000       0.031
   0.00000000  0.25000000  0.25000000       0.062
   0.25000000  0.25000000  0.25000000       0.125
   0.50000000  0.25000000  0.25000000       0.062
   0.00000000  0.50000000  0.25000000       0.031
   0.25000000  0.50000000  0.25000000       0.062
   0.50000000  0.50000000  0.25000000       0.031
   0.00000000  0.00000000  0.50000000       0.016
   0.25000000  0.00000000  0.50000000       0.031
   0.50000000  0.00000000  0.50000000       0.016
   0.00000000  0.25000000  0.50000000       0.031
   0.25000000  0.25000000  0.50000000       0.062
   0.50000000  0.25000000  0.50000000       0.031
   0.00000000  0.50000000  0.50000000       0.016
   0.25000000  0.50000000  0.50000000       0.031
   0.50000000  0.50000000  0.50000000       0.016
 
 position of ions in fractional coordinates (direct lattice) 
   0.00000000  0.00000000  0.00000000
   0.00000000  0.50000000  0.50000000
   0.50000000  0.00000000  0.50000000
   0.50000000  0.50000000  0.00000000
   0.25000000  0.30457759  0.73666153
   0.25000000  0.80457759  0.76333847
   0.25000000  0.80457759  0.26333847
   0.25000000  0.30457759  0.23666153
   0.75000000  0.19542241  0.36953478
   0.75000000  0.69542241  0.13046522
   0.75000000  0.69542241  0.63046522
   0.75000000  0.19542241  0.86953478
 
 position of ions in cartesian coordinates  (Angst):
   0.00000000  0.00000000  0.00000000
   0.00000000  2.53778400  2.53778400
   2.53778400  0.00000000  2.53778400
   2.53778400  2.53778400  0.00000000
   1.26889200  1.54590427  3.73897569
   1.26889200  4.08368827  3.87437631
   1.26889200  4.08368827  1.33659231
   1.26889200  1.54590427  1.20119169
   3.80667600  0.99187973  1.87559890
   3.80667600  3.52966373  0.66218510
   3.80667600  3.52966373  3.19996910
   3.80667600  0.99187973  4.41338290
 


--------------------------------------------------------------------------------------------------------


 k-point  1 :   0.0000 0.0000 0.0000  plane waves:    3287
 k-point  2 :   0.2500 0.0000 0.0000  plane waves:    3331
 k-point  3 :   0.5000 0.0000 0.0000  plane waves:    3362
 k-point  4 :   0.0000 0.2500 0.0000  plane waves:    3331
 k-point  5 :   0.2500 0.2500 0.0000  plane waves:    3333
 k-point  6 :   0.5000 0.2500 0.0000  plane waves:    3326
 k-point  7 :   0.0000 0.5000 0.0000  plane waves:    3362
 k-point  8 :   0.2500 0.5000 0.0000  plane waves:    3326
 k-point  9 :   0.5000 0.5000 0.0000  plane waves:    3348
 k-point 10 :   0.0000 0.0000 0.2500  plane waves:    3331
 k-point 11 :   0.2500 0.0000 0.2500  plane waves:    3333
 k-point 12 :   0.5000 0.0000 0.2500  plane waves:    3326
 k-point 13 :   0.0000 0.2500 0.2500  plane waves:    3333
 k-point 14 :   0.2500 0.2500 0.2500  plane waves:    3293
 k-point 15 :   0.5000 0.2500 0.2500  plane waves:    3314
 k-point 16 :   0.0000 0.5000 0.2500  plane waves:    3326
 k-point 17 :   0.2500 0.5000 0.2500  plane waves:    3314
 k-point 18 :   0.5000 0.5000 0.2500  plane waves:    3312
 k-point 19 :   0.0000 0.0000 0.5000  plane waves:    3362
 k-point 20 :   0.2500 0.0000 0.5000  plane waves:    3326
 k-point 21 :   0.5000 0.0000 0.5000  plane waves:    3348
 k-point 22 :   0.0000 0.2500 0.5000  plane waves:    3326
 k-point 23 :   0.2500 0.2500 0.5000  plane waves:    3314
 k-point 24 :   0.5000 0.2500 0.5000  plane waves:    3312
 k-point 25 :   0.0000 0.5000 0.5000  plane waves:    3348
 k-point 26 :   0.2500 0.5000 0.5000  plane waves:    3312
 k-point 27 :   0.5000 0.5000 0.5000  plane waves:    3328

 maximum and minimum number of plane-waves per node :       579      521

 maximum number of plane-waves:      3362
 maximum index in each direction: 
   IXMAX=    9   IYMAX=    9   IZMAX=    9
   IXMIN=   -9   IYMIN=   -9   IZMIN=   -9


 parallel 3D FFT for wavefunctions:
    minimum data exchange during FFTs selected (reduces bandwidth)
 parallel 3D FFT for charge:
    minimum data exchange during FFTs selected (reduces bandwidth)


 total amount of memory used by VASP MPI-rank0    39021. kBytes
=======================================================================

   base      :      30000. kBytes
   nonl-proj :       4637. kBytes
   fftplans  :        957. kBytes
   grid      :       1546. kBytes
   one-center:         31. kBytes
   wavefun   :       1850. kBytes
 
     INWAV:  cpu time    0.0000: real time    0.0000
 Broyden mixing: mesh for mixing (old mesh)
   NGX = 19   NGY = 19   NGZ = 19
  (NGX  = 80   NGY  = 80   NGZ  = 80)
  gives a total of   6859 points

 initial charge density was supplied:
 charge density of overlapping atoms calculated
 number of electron      64.0000000 magnetization 
 keeping initial charge density in first step


--------------------------------------------------------------------------------------------------------


 Maximum index for augmentation-charges         2214 (set IRDMAX)


--------------------------------------------------------------------------------------------------------


 First call to EWALD:  gamma=   0.349
 Maximum number of real-space cells 3x 3x 3
 Maximum number of reciprocal cells 3x 3x 3

    FEWALD:  cpu time    0.0012: real time    0.0012


--------------------------------------- Iteration      1(   1)  ---------------------------------------


    POTLOK:  cpu time    0.0047: real time    0.0068
    SETDIJ:  cpu time    0.0038: real time    0.0038
    EDDIAG:  cpu time    0.1082: real time    0.1089
  RMM-DIIS:  cpu time    0.1092: real time    0.1095
    ORTHCH:  cpu time    0.0098: real time    0.0098
       DOS:  cpu time    0.0008: real time    0.0008
    --------------------------------------------
      LOOP:  cpu time    0.2364: real time    0.2395

 eigenvalue-minimisations  :  1134
 total energy-change (2. order) : 0.8083712E+03  (-0.2437570E+04)
 number of electron      64.0000000 magnetization 
 augmentation part       64.0000000 magnetization 

 Free energy of the ion-electron system (eV)
  ---------------------------------------------------
  alpha Z        PSCENC =       238.81820658
  Ewald energy   TEWEN  =     -3145.54243441
  -Hartree energ DENC   =      -890.77981228
  -exchange      EXHF   =         0.00000000
  -V(xc)+E(xc)   XCENC  =        12.80432164
  PAW double counting   =      3254.09161188    -3039.98654124
  entropy T*S    EENTRO =        -0.00091404
  eigenvalues    EBANDS =       619.23075577
  atomic energy  EATOM  =      3759.73604014
  Solvation  Ediel_sol  =         0.00000000
  ---------------------------------------------------
  free energy    TOTEN  =       808.37123405 eV

  energy without entropy =      808.37214809  energy(sigma->0) =      808.37169107


--------------------------------------------------------------------------------------------------------




--------------------------------------- Iteration      1(   2)  ---------------------------------------


    EDDIAG:  cpu time    0.0984: real time    0.0999
  RMM-DIIS:  cpu time    0.1089: real time    0.1091
    ORTHCH:  cpu time    0.0096: real time    0.0097
       DOS:  cpu time    0.0006: real time    0.0006
    --------------------------------------------
      LOOP:  cpu time    0.2175: real time    0.2193

 eigenvalue-minimisations  :  1134
 total energy-change (2. order) :-0.6345222E+03  (-0.6478846E+03)
 number of electron      64.0000000 magnetization 
 augmentation part       64.0000000 magnetization 

 Free energy of the ion-electron system (eV)
  ---------------------------------------------------
  alpha Z        PSCENC =       238.81820658
  Ewald energy   TEWEN  =     -3145.54243441
  -Hartree energ DENC   =      -890.77981228
  -exchange      EXHF   =         0.00000000
  -V(xc)+E(xc)   XCENC  =        12.80432164
  PAW double counting   =      3254.09161188    -3039.98654124
  entropy T*S    EENTRO =        -0.00197256
  eigenvalues    EBANDS =       -15.29040517
  atomic energy  EATOM  =      3759.73604014
  Solvation  Ediel_sol  =         0.00000000
  ---------------------------------------------------
  free energy    TOTEN  =       173.84901459 eV

  energy without entropy =      173.85098715  energy(sigma->0) =      173.85000087


--------------------------------------------------------------------------------------------------------




--------------------------------------- Iteration      1(   3)  ---------------------------------------


    EDDIAG:  cpu time    0.0975: real time    0.0977
  RMM-DIIS:  cpu time    0.1084: real time    0.1086
    ORTHCH:  cpu time    0.0096: real time    0.0096
       DOS:  cpu time    0.0006: real time    0.0006
    --------------------------------------------
      LOOP:  cpu time    0.2162: real time    0.2167

 eigenvalue-minimisations  :  1134
 total energy-change (2. order) :-0.2107174E+03  (-0.2128232E+03)
 number of electron      64.0000000 magnetization 
 augmentation part       64.0000000 magnetization 

 Free energy of the ion-electron system (eV)
  ---------------------------------------------------
  alpha Z        PSCENC =       238.81820658
  Ewald energy   TEWEN  =     -3145.54243441
  -Hartree energ DENC   =      -890.77981228
  -exchange      EXHF   =         0.00000000
  -V(xc)+E(xc)   XCENC  =        12.80432164
  PAW double counting   =      3254.09161188    -3039.98654124
  entropy T*S    EENTRO =        -0.00679911
  eigenvalues    EBANDS =      -226.00299882
  atomic energy  EATOM  =      3759.73604014
  Solvation  Ediel_sol  =         0.00000000
  ---------------------------------------------------
  free energy    TOTEN  =       -36.86840561 eV

  energy without entropy =      -36.86160650  energy(sigma->0) =      -36.86500605


--------------------------------------------------------------------------------------------------------




--------------------------------------- Iteration      1(   4)  ---------------------------------------


    EDDIAG:  cpu time    0.0972: real time    0.0975
  RMM-DIIS:  cpu time    0.1088: real time    0.1091
    ORTHCH:  cpu time    0.0096: real time    0.0096
       DOS:  cpu time    0.0003: real time    0.0003
    --------------------------------------------
      LOOP:  cpu time    0.2159: real time    0.2164

 eigenvalue-minimisations  :  1134
 total energy-change (2. order) :-0.7934987E+02  (-0.6505634E+02)
 number of electron      64.0000000 magnetization 
 augmentation part       64.0000000 magnetization 

 Free energy of the ion-electron system (eV)
  ---------------------------------------------------
  alpha Z        PSCENC =       238.81820658
  Ewald energy   TEWEN  =     -3145.54243441
  -Hartree energ DENC   =      -890.77981228
  -exchange      EXHF   =         0.00000000
  -V(xc)+E(xc)   XCENC  =        12.80432164
  PAW double counting   =      3254.09161188    -3039.98654124
  entropy T*S    EENTRO =        -0.00000000
  eigenvalues    EBANDS =      -305.35967153
  atomic energy  EATOM  =      3759.73604014
  Solvation  Ediel_sol  =         0.00000000
  ---------------------------------------------------
  free energy    TOTEN  =      -116.21827921 eV

  energy without entropy =     -116.21827921  energy(sigma->0) =     -116.21827921


--------------------------------------------------------------------------------------------------------




--------------------------------------- Iteration      1(   5)  ---------------------------------------


    EDDIAG:  cpu time    0.0970: real time    0.0973
  RMM-DIIS:  cpu time    0.1128: real time    0.1131
    ORTHCH:  cpu time    0.0099: real time    0.0108
       DOS:  cpu time    0.0003: real time    0.0003
    --------------------------------------------
      LOOP:  cpu time    0.2201: real time    0.2214

 eigenvalue-minimisations  :  1134
 total energy-change (2. order) :-0.2367637E+02  (-0.2151913E+02)
 number of electron      64.0000000 magnetization 
 augmentation part       64.0000000 magnetization 

 Free energy of the ion-electron system (eV)
  ---------------------------------------------------
  alpha Z        PSCENC =       238.81820658
  Ewald energy   TEWEN  =     -3145.54243441
  -Hartree energ DENC   =      -890.77981228
  -exchange      EXHF   =         0.00000000
  -V(xc)+E(xc)   XCENC  =        12.80432164
  PAW double counting   =      3254.09161188    -3039.98654124
  entropy T*S    EENTRO =        -0.00000000
  eigenvalues    EBANDS =      -329.03603784
  atomic energy  EATOM  =      3759.73604014
  Solvation  Ediel_sol  =         0.00000000
  ---------------------------------------------------
  free energy    TOTEN  =      -139.89464552 eV

  energy without entropy =     -139.89464552  energy(sigma->0) =     -139.89464552


--------------------------------------------------------------------------------------------------------




--------------------------------------- Iteration      1(   6)  ---------------------------------------


    EDDIAG:  cpu time    0.0987: real time    0.1003
  RMM-DIIS:  cpu time    0.1079: real time    0.1082
    ORTHCH:  cpu time    0.0095: real time    0.0095
       DOS:  cpu time    0.0003: real time    0.0003
    --------------------------------------------
      LOOP:  cpu time    0.2165: real time    0.2183

 eigenvalue-minimisations  :  1134
 total energy-change (2. order) :-0.6996326E+01  (-0.6726064E+01)
 number of electron      64.0000000 magnetization 
 augmentation part       64.0000000 magnetization 

 Free energy of the ion-electron system (eV)
  ---------------------------------------------------
  alpha Z        PSCENC =       238.81820658
  Ewald energy   TEWEN  =     -3145.54243441
  -Hartree energ DENC   =      -890.77981228
  -exchange      EXHF   =         0.00000000
  -V(xc)+E(xc)   XCENC  =        12.80432164
  PAW double counting   =      3254.09161188    -3039.98654124
  entropy T*S    EENTRO =        -0.00000000
  eigenvalues    EBANDS =      -336.03236400
  atomic energy  EATOM  =      3759.73604014
  Solvation  Ediel_sol  =         0.00000000
  ---------------------------------------------------
  free energy    TOTEN  =      -146.89097169 eV

  energy without entropy =     -146.89097169  energy(sigma->0) =     -146.89097169


--------------------------------------------------------------------------------------------------------




--------------------------------------- Iteration      1(   7)  ---------------------------------------


    EDDIAG:  cpu time    0.0968: real time    0.0971
  RMM-DIIS:  cpu time    0.1227: real time    0.1230
    ORTHCH:  cpu time    0.0095: real time    0.0095
       DOS:  cpu time    0.0003: real time    0.0003
    --------------------------------------------
      LOOP:  cpu time    0.2293: real time    0.2299

 eigenvalue-minimisations  :  1134
 total energy-change (2. order) :-0.2174045E+01  (-0.2148173E+01)
 number of electron      64.0000000 magnetization 
 augmentation part       64.0000000 magnetization 

 Free energy of the ion-electron system (eV)
  ---------------------------------------------------
  alpha Z        PSCENC =       238.81820658
  Ewald energy   TEWEN  =     -3145.54243441
  -Hartree energ DENC   =      -890.77981228
  -exchange      EXHF   =         0.00000000
  -V(xc)+E(xc)   XCENC  =        12.80432164
  PAW double counting   =      3254.09161188    -3039.98654124
  entropy T*S    EENTRO =        -0.00000000
  eigenvalues    EBANDS =      -338.20640949
  atomic energy  EATOM  =      3759.73604014
  Solvation  Ediel_sol  =         0.00000000
  ---------------------------------------------------
  free energy    TOTEN  =      -149.06501718 eV

  energy without entropy =     -149.06501718  energy(sigma->0) =     -149.06501718


--------------------------------------------------------------------------------------------------------




--------------------------------------- Iteration      1(   8)  ---------------------------------------


    EDDIAG:  cpu time    0.0968: real time    0.0970
  RMM-DIIS:  cpu time    0.1084: real time    0.1086
    ORTHCH:  cpu time    0.0095: real time    0.0095
       DOS:  cpu time    0.0003: real time    0.0003
    --------------------------------------------
      LOOP:  cpu time    0.2150: real time    0.2155

 eigenvalue-minimisations  :  1134
 total energy-change (2. order) :-0.7181039E+00  (-0.7044483E+00)
 number of electron      64.0000000 magnetization 
 augmentation part       64.0000000 magnetization 

 Free energy of the ion-electron system (eV)
  ---------------------------------------------------
  alpha Z        PSCENC =       238.81820658
  Ewald energy   TEWEN  =     -3145.54243441
  -Hartree energ DENC   =      -890.77981228
  -exchange      EXHF   =         0.00000000
  -V(xc)+E(xc)   XCENC  =        12.80432164
  PAW double counting   =      3254.09161188    -3039.98654124
  entropy T*S    EENTRO =        -0.00000000
  eigenvalues    EBANDS =      -338.92451341
  atomic energy  EATOM  =      3759.73604014
  Solvation  Ediel_sol  =         0.00000000
  ---------------------------------------------------
  free energy    TOTEN  =      -149.78312110 eV

  energy without entropy =     -149.78312110  energy(sigma->0) =     -149.78312110


--------------------------------------------------------------------------------------------------------




--------------------------------------- Iteration      1(   9)  ---------------------------------------


    EDDIAG:  cpu time    0.0965: real time    0.0967
  RMM-DIIS:  cpu time    0.1938: real time    0.1943
    ORTHCH:  cpu time    0.0094: real time    0.0094
       DOS:  cpu time    0.0003: real time    0.0003
    --------------------------------------------
      LOOP:  cpu time    0.2999: real time    0.3006

 eigenvalue-minimisations  :  2282
 total energy-change (2. order) :-0.3225246E+00  (-0.3198559E+00)
 number of electron      64.0000000 magnetization 
 augmentation part       64.0000000 magnetization 

 Free energy of the ion-electron system (eV)
  ---------------------------------------------------
  alpha Z        PSCENC =       238.81820658
  Ewald energy   TEWEN  =     -3145.54243441
  -Hartree energ DENC   =      -890.77981228
  -exchange      EXHF   =         0.00000000
  -V(xc)+E(xc)   XCENC  =        12.80432164
  PAW double counting   =      3254.09161188    -3039.98654124
  entropy T*S    EENTRO =        -0.00000000
  eigenvalues    EBANDS =      -339.24703801
  atomic energy  EATOM  =      3759.73604014
  Solvation  Ediel_sol  =         0.00000000
  ---------------------------------------------------
  free energy    TOTEN  =      -150.10564569 eV

  energy without entropy =     -150.10564569  energy(sigma->0) =     -150.10564569


--------------------------------------------------------------------------------------------------------




--------------------------------------- Iteration      1(  10)  ---------------------------------------


    EDDIAG:  cpu time    0.0967: real time    0.0969
  RMM-DIIS:  cpu time    0.2016: real time    0.2021
    ORTHCH:  cpu time    0.0093: real time    0.0093
       DOS:  cpu time    0.0003: real time    0.0003
    --------------------------------------------
      LOOP:  cpu time    0.3079: real time    0.3086

 eigenvalue-minimisations  :  2395
 total energy-change (2. order) :-0.4752132E-01  (-0.4785962E-01)
 number of electron      64.0000000 magnetization 
 augmentation part       64.0000000 magnetization 

 Free energy of the ion-electron system (eV)
  ---------------------------------------------------
  alpha Z        PSCENC =       238.81820658
  Ewald energy   TEWEN  =     -3145.54243441
  -Hartree energ DENC   =      -890.77981228
  -exchange      EXHF   =         0.00000000
  -V(xc)+E(xc)   XCENC  =        12.80432164
  PAW double counting   =      3254.09161188    -3039.98654124
  entropy T*S    EENTRO =        -0.00000000
  eigenvalues    EBANDS =      -339.29455933
  atomic energy  EATOM  =      3759.73604014
  Solvation  Ediel_sol  =         0.00000000
  ---------------------------------------------------
  free energy    TOTEN  =      -150.15316702 eV

  energy without entropy =     -150.15316702  energy(sigma->0) =     -150.15316702


--------------------------------------------------------------------------------------------------------




--------------------------------------- Iteration      1(  11)  ---------------------------------------


    EDDIAG:  cpu time    0.0961: real time    0.0963
  RMM-DIIS:  cpu time    0.1793: real time    0.1797
    ORTHCH:  cpu time    0.0093: real time    0.0094
       DOS:  cpu time    0.0003: real time    0.0003
    --------------------------------------------
      LOOP:  cpu time    0.2850: real time    0.2857

 eigenvalue-minimisations  :  2070
 total energy-change (2. order) :-0.1574295E-02  (-0.1823202E-02)
 number of electron      64.0000000 magnetization 
 augmentation part       64.0000000 magnetization 

 Free energy of the ion-electron system (eV)
  ---------------------------------------------------
  alpha Z        PSCENC =       238.81820658
  Ewald energy   TEWEN  =     -3145.54243441
  -Hartree energ DENC   =      -890.77981228
  -exchange      EXHF   =         0.00000000
  -V(xc)+E(xc)   XCENC  =        12.80432164
  PAW double counting   =      3254.09161188    -3039.98654124
  entropy T*S    EENTRO =        -0.00000000
  eigenvalues    EBANDS =      -339.29613363
  atomic energy  EATOM  =      3759.73604014
  Solvation  Ediel_sol  =         0.00000000
  ---------------------------------------------------
  free energy    TOTEN  =      -150.15474131 eV

  energy without entropy =     -150.15474131  energy(sigma->0) =     -150.15474131


--------------------------------------------------------------------------------------------------------




--------------------------------------- Iteration      1(  12)  ---------------------------------------


    EDDIAG:  cpu time    0.0962: real time    0.0965
  RMM-DIIS:  cpu time    0.1705: real time    0.1709
    ORTHCH:  cpu time    0.0093: real time    0.0093
       DOS:  cpu time    0.0003: real time    0.0003
    CHARGE:  cpu time    0.0224: real time    0.0225
    MIXING:  cpu time    0.0008: real time    0.0009
    --------------------------------------------
      LOOP:  cpu time    0.2996: real time    0.3004

 eigenvalue-minimisations  :  1897
 total energy-change (2. order) :-0.3336279E-03  (-0.3296286E-03)
 number of electron      64.0000003 magnetization 
 augmentation part        7.2559417 magnetization 

 Broyden mixing:
  rms(total) = 0.69011E+01    rms(broyden)= 0.69009E+01
  rms(prec ) = 0.83531E+01
  weight for this iteration     100.00

 Free energy of the ion-electron system (eV)
  ---------------------------------------------------
  alpha Z        PSCENC =       238.81820658
  Ewald energy   TEWEN  =     -3145.54243441
  -Hartree energ DENC   =      -890.77981228
  -exchange      EXHF   =         0.00000000
  -V(xc)+E(xc)   XCENC  =        12.80432164
  PAW double counting   =      3254.09161188    -3039.98654124
  entropy T*S    EENTRO =        -0.00000000
  eigenvalues    EBANDS =      -339.29646726
  atomic energy  EATOM  =      3759.73604014
  Solvation  Ediel_sol  =         0.00000000
  ---------------------------------------------------
  free energy    TOTEN  =      -150.15507494 eV

  energy without entropy =     -150.15507494  energy(sigma->0) =     -150.15507494


--------------------------------------------------------------------------------------------------------




--------------------------------------- Iteration      1(  13)  ---------------------------------------


    POTLOK:  cpu time    0.0027: real time    0.0027
    SETDIJ:  cpu time    0.0032: real time    0.0033
    EDDIAG:  cpu time    0.0959: real time    0.0962
  RMM-DIIS:  cpu time    0.1904: real time    0.1909
    ORTHCH:  cpu time    0.0093: real time    0.0093
       DOS:  cpu time    0.0003: real time    0.0003
    CHARGE:  cpu time    0.0216: real time    0.0216
    MIXING:  cpu time    0.0007: real time    0.0007
    --------------------------------------------
      LOOP:  cpu time    0.3241: real time    0.3249

 eigenvalue-minimisations  :  2268
 total energy-change (2. order) : 0.2108214E+02  (-0.1044549E+02)
 number of electron      64.0000002 magnetization 
 augmentation part        6.0581024 magnetization 

 Broyden mixing:
  rms(total) = 0.33691E+01    rms(broyden)= 0.33688E+01
  rms(prec ) = 0.34944E+01
  weight for this iteration     100.00

 eigenvalues of (default mixing * dielectric matrix)
  average eigenvalue GAMMA=   1.5323
  1.5323

 Free energy of the ion-electron system (eV)
  ---------------------------------------------------
  alpha Z        PSCENC =       238.81820658
  Ewald energy   TEWEN  =     -3145.54243441
  -Hartree energ DENC   =     -1064.55319081
  -exchange      EXHF   =         0.00000000
  -V(xc)+E(xc)   XCENC  =        27.38590955
  PAW double counting   =      5024.06313822    -4814.86925395
  entropy T*S    EENTRO =        -0.00000000
  eigenvalues    EBANDS =      -154.11135095
  atomic energy  EATOM  =      3759.73604014
  Solvation  Ediel_sol  =         0.00000000
  ---------------------------------------------------
  free energy    TOTEN  =      -129.07293563 eV

  energy without entropy =     -129.07293563  energy(sigma->0) =     -129.07293563


--------------------------------------------------------------------------------------------------------




--------------------------------------- Iteration      1(  14)  ---------------------------------------


    POTLOK:  cpu time    0.0024: real time    0.0024
    SETDIJ:  cpu time    0.0024: real time    0.0024
    EDDIAG:  cpu time    0.0956: real time    0.0958
  RMM-DIIS:  cpu time    0.1964: real time    0.1969
    ORTHCH:  cpu time    0.0093: real time    0.0093
       DOS:  cpu time    0.0003: real time    0.0003
    CHARGE:  cpu time    0.0215: real time    0.0216
    MIXING:  cpu time    0.0004: real time    0.0004
    --------------------------------------------
      LOOP:  cpu time    0.3283: real time    0.3291

 eigenvalue-minimisations  :  2329
 total energy-change (2. order) : 0.8937307E+00  (-0.3572119E+00)
 number of electron      64.0000002 magnetization 
 augmentation part        6.0480434 magnetization 

 Broyden mixing:
  rms(total) = 0.14335E+01    rms(broyden)= 0.14335E+01
  rms(prec ) = 0.14960E+01
  weight for this iteration     100.00

 eigenvalues of (default mixing * dielectric matrix)
  average eigenvalue GAMMA=   1.5858
  1.0333  2.1382

 Free energy of the ion-electron system (eV)
  ---------------------------------------------------
  alpha Z        PSCENC =       238.81820658
  Ewald energy   TEWEN  =     -3145.54243441
  -Hartree energ DENC   =     -1063.31961924
  -exchange      EXHF   =         0.00000000
  -V(xc)+E(xc)   XCENC  =        27.85108580
  PAW double counting   =      6923.13825671    -6714.09388707
  entropy T*S    EENTRO =        -0.00000000
  eigenvalues    EBANDS =      -154.76685345
  atomic energy  EATOM  =      3759.73604014
  Solvation  Ediel_sol  =         0.00000000
  ---------------------------------------------------
  free energy    TOTEN  =      -128.17920495 eV

  energy without entropy =     -128.17920495  energy(sigma->0) =     -128.17920495


--------------------------------------------------------------------------------------------------------




--------------------------------------- Iteration      1(  15)  ---------------------------------------


    POTLOK:  cpu time    0.0024: real time    0.0024
    SETDIJ:  cpu time    0.0024: real time    0.0024
    EDDIAG:  cpu time    0.0997: real time    0.0999
  RMM-DIIS:  cpu time    0.1941: real time    0.1946
    ORTHCH:  cpu time    0.0094: real time    0.0094
       DOS:  cpu time    0.0003: real time    0.0003
    CHARGE:  cpu time    0.0218: real time    0.0219
    MIXING:  cpu time    0.0005: real time    0.0005
    --------------------------------------------
      LOOP:  cpu time    0.3306: real time    0.3314

 eigenvalue-minimisations  :  2268
 total energy-change (2. order) : 0.2828108E+00  (-0.9437952E-01)
 number of electron      64.0000002 magnetization 
 augmentation part        6.1363175 magnetization 

 Broyden mixing:
  rms(total) = 0.16775E+00    rms(broyden)= 0.16772E+00
  rms(prec ) = 0.23159E+00
  weight for this iteration     100.00

 eigenvalues of (default mixing * dielectric matrix)
  average eigenvalue GAMMA=   1.4431
  2.2667  1.0314  1.0314

 Free energy of the ion-electron system (eV)
  ---------------------------------------------------
  alpha Z        PSCENC =       238.81820658
  Ewald energy   TEWEN  =     -3145.54243441
  -Hartree energ DENC   =     -1055.87219128
  -exchange      EXHF   =         0.00000000
  -V(xc)+E(xc)   XCENC  =        27.74757684
  PAW double counting   =      8736.51795052    -8527.74350785
  entropy T*S    EENTRO =        -0.00000000
  eigenvalues    EBANDS =      -161.55803473
  atomic energy  EATOM  =      3759.73604014
  Solvation  Ediel_sol  =         0.00000000
  ---------------------------------------------------
  free energy    TOTEN  =      -127.89639419 eV

  energy without entropy =     -127.89639419  energy(sigma->0) =     -127.89639419


--------------------------------------------------------------------------------------------------------




--------------------------------------- Iteration      1(  16)  ---------------------------------------


    POTLOK:  cpu time    0.0026: real time    0.0039
    SETDIJ:  cpu time    0.0031: real time    0.0031
    EDDIAG:  cpu time    0.0969: real time    0.0972
  RMM-DIIS:  cpu time    0.1917: real time    0.1922
    ORTHCH:  cpu time    0.0093: real time    0.0093
       DOS:  cpu time    0.0003: real time    0.0003
    CHARGE:  cpu time    0.0215: real time    0.0215
    MIXING:  cpu time    0.0004: real time    0.0004
    --------------------------------------------
      LOOP:  cpu time    0.3257: real time    0.3279

 eigenvalue-minimisations  :  2290
 total energy-change (2. order) : 0.2180967E-01  (-0.1218084E-01)
 number of electron      64.0000002 magnetization 
 augmentation part        6.1070783 magnetization 

 Broyden mixing:
  rms(total) = 0.82800E-01    rms(broyden)= 0.82795E-01
  rms(prec ) = 0.87833E-01
  weight for this iteration     100.00

 eigenvalues of (default mixing * dielectric matrix)
  average eigenvalue GAMMA=   1.6596
  2.6162  2.1522  0.9349  0.9349

 Free energy of the ion-electron system (eV)
  ---------------------------------------------------
  alpha Z        PSCENC =       238.81820658
  Ewald energy   TEWEN  =     -3145.54243441
  -Hartree energ DENC   =     -1061.52895819
  -exchange      EXHF   =         0.00000000
  -V(xc)+E(xc)   XCENC  =        28.23892473
  PAW double counting   =      8879.87770763    -8671.31253733
  entropy T*S    EENTRO =        -0.00000000
  eigenvalues    EBANDS =      -156.16153367
  atomic energy  EATOM  =      3759.73604014
  Solvation  Ediel_sol  =         0.00000000
  ---------------------------------------------------
  free energy    TOTEN  =      -127.87458452 eV

  energy without entropy =     -127.87458452  energy(sigma->0) =     -127.87458452


--------------------------------------------------------------------------------------------------------




--------------------------------------- Iteration      1(  17)  ---------------------------------------


    POTLOK:  cpu time    0.0024: real time    0.0024
    SETDIJ:  cpu time    0.0025: real time    0.0025
    EDDIAG:  cpu time    0.0958: real time    0.0960
  RMM-DIIS:  cpu time    0.1988: real time    0.1993
    ORTHCH:  cpu time    0.0093: real time    0.0093
       DOS:  cpu time    0.0003: real time    0.0003
    CHARGE:  cpu time    0.0215: real time    0.0215
    MIXING:  cpu time    0.0005: real time    0.0005
    --------------------------------------------
      LOOP:  cpu time    0.3311: real time    0.3318

 eigenvalue-minimisations  :  2327
 total energy-change (2. order) :-0.2405443E-02  (-0.3581329E-02)
 number of electron      64.0000002 magnetization 
 augmentation part        6.0910902 magnetization 

 Broyden mixing:
  rms(total) = 0.41937E-01    rms(broyden)= 0.41927E-01
  rms(prec ) = 0.67547E-01
  weight for this iteration     100.00

 eigenvalues of (default mixing * dielectric matrix)
  average eigenvalue GAMMA=   1.5550
  2.5713  2.1806  1.0207  1.0207  0.9816

 Free energy of the ion-electron system (eV)
  ---------------------------------------------------
  alpha Z        PSCENC =       238.81820658
  Ewald energy   TEWEN  =     -3145.54243441
  -Hartree energ DENC   =     -1063.89069076
  -exchange      EXHF   =         0.00000000
  -V(xc)+E(xc)   XCENC  =        28.43427078
  PAW double counting   =      8927.81833612    -8719.43328758
  entropy T*S    EENTRO =        -0.00000000
  eigenvalues    EBANDS =      -153.81743084
  atomic energy  EATOM  =      3759.73604014
  Solvation  Ediel_sol  =         0.00000000
  ---------------------------------------------------
  free energy    TOTEN  =      -127.87698997 eV

  energy without entropy =     -127.87698997  energy(sigma->0) =     -127.87698997


--------------------------------------------------------------------------------------------------------




--------------------------------------- Iteration      1(  18)  ---------------------------------------


    POTLOK:  cpu time    0.0024: real time    0.0025
    SETDIJ:  cpu time    0.0026: real time    0.0026
    EDDIAG:  cpu time    0.0958: real time    0.0960
  RMM-DIIS:  cpu time    0.1934: real time    0.1939
    ORTHCH:  cpu time    0.0092: real time    0.0093
       DOS:  cpu time    0.0003: real time    0.0003
    CHARGE:  cpu time    0.0217: real time    0.0217
    MIXING:  cpu time    0.0004: real time    0.0004
    --------------------------------------------
      LOOP:  cpu time    0.3258: real time    0.3266

 eigenvalue-minimisations  :  2268
 total energy-change (2. order) : 0.2820204E-02  (-0.1394560E-02)
 number of electron      64.0000002 magnetization 
 augmentation part        6.1033855 magnetization 

 Broyden mixing:
  rms(total) = 0.10938E-01    rms(broyden)= 0.10930E-01
  rms(prec ) = 0.12015E-01
  weight for this iteration     100.00

 eigenvalues of (default mixing * dielectric matrix)
  average eigenvalue GAMMA=   1.4561
  2.7106  2.2425  1.1602  1.0054  0.9088  0.7093

 Free energy of the ion-electron system (eV)
  ---------------------------------------------------
  alpha Z        PSCENC =       238.81820658
  Ewald energy   TEWEN  =     -3145.54243441
  -Hartree energ DENC   =     -1061.77150343
  -exchange      EXHF   =         0.00000000
  -V(xc)+E(xc)   XCENC  =        28.25793514
  PAW double counting   =      8915.07037107    -8706.65040542
  entropy T*S    EENTRO =        -0.00000000
  eigenvalues    EBANDS =      -155.79237944
  atomic energy  EATOM  =      3759.73604014
  Solvation  Ediel_sol  =         0.00000000
  ---------------------------------------------------
  free energy    TOTEN  =      -127.87416976 eV

  energy without entropy =     -127.87416976  energy(sigma->0) =     -127.87416976


--------------------------------------------------------------------------------------------------------




--------------------------------------- Iteration      1(  19)  ---------------------------------------


    POTLOK:  cpu time    0.0024: real time    0.0024
    SETDIJ:  cpu time    0.0024: real time    0.0024
    EDDIAG:  cpu time    0.0957: real time    0.0959
  RMM-DIIS:  cpu time    0.2052: real time    0.2057
    ORTHCH:  cpu time    0.0095: real time    0.0095
       DOS:  cpu time    0.0003: real time    0.0003
    CHARGE:  cpu time    0.0216: real time    0.0217
    MIXING:  cpu time    0.0005: real time    0.0005
    --------------------------------------------
      LOOP:  cpu time    0.3375: real time    0.3384

 eigenvalue-minimisations  :  2407
 total energy-change (2. order) :-0.9267265E-04  (-0.7127286E-04)
 number of electron      64.0000002 magnetization 
 augmentation part        6.1051699 magnetization 

 Broyden mixing:
  rms(total) = 0.94635E-02    rms(broyden)= 0.94622E-02
  rms(prec ) = 0.14143E-01
  weight for this iteration     100.00

 eigenvalues of (default mixing * dielectric matrix)
  average eigenvalue GAMMA=   1.5462
  2.5758  2.1197  2.1197  0.9316  0.9819  1.0472  1.0472

 Free energy of the ion-electron system (eV)
  ---------------------------------------------------
  alpha Z        PSCENC =       238.81820658
  Ewald energy   TEWEN  =     -3145.54243441
  -Hartree energ DENC   =     -1061.66658793
  -exchange      EXHF   =         0.00000000
  -V(xc)+E(xc)   XCENC  =        28.24714871
  PAW double counting   =      8912.91471276    -8704.49228441
  entropy T*S    EENTRO =        -0.00000000
  eigenvalues    EBANDS =      -155.88906388
  atomic energy  EATOM  =      3759.73604014
  Solvation  Ediel_sol  =         0.00000000
  ---------------------------------------------------
  free energy    TOTEN  =      -127.87426244 eV

  energy without entropy =     -127.87426244  energy(sigma->0) =     -127.87426244


--------------------------------------------------------------------------------------------------------




--------------------------------------- Iteration      1(  20)  ---------------------------------------


    POTLOK:  cpu time    0.0024: real time    0.0024
    SETDIJ:  cpu time    0.0024: real time    0.0024
    EDDIAG:  cpu time    0.0957: real time    0.0959
  RMM-DIIS:  cpu time    0.1907: real time    0.1912
    ORTHCH:  cpu time    0.0092: real time    0.0092
       DOS:  cpu time    0.0003: real time    0.0003
    CHARGE:  cpu time    0.0216: real time    0.0217
    MIXING:  cpu time    0.0005: real time    0.0005
    --------------------------------------------
      LOOP:  cpu time    0.3228: real time    0.3236

 eigenvalue-minimisations  :  2268
 total energy-change (2. order) : 0.1074329E-03  (-0.7151707E-04)
 number of electron      64.0000002 magnetization 
 augmentation part        6.1025593 magnetization 

 Broyden mixing:
  rms(total) = 0.21075E-02    rms(broyden)= 0.21050E-02
  rms(prec ) = 0.30699E-02
  weight for this iteration     100.00

 eigenvalues of (default mixing * dielectric matrix)
  average eigenvalue GAMMA=   1.5155
  2.5889  2.2804  2.2804  1.0574  1.0574  0.8286  1.0157  1.0157

 Free energy of the ion-electron system (eV)
  ---------------------------------------------------
  alpha Z        PSCENC =       238.81820658
  Ewald energy   TEWEN  =     -3145.54243441
  -Hartree energ DENC   =     -1062.08532544
  -exchange      EXHF   =         0.00000000
  -V(xc)+E(xc)   XCENC  =        28.28111537
  PAW double counting   =      8917.13328693    -8708.70875175
  entropy T*S    EENTRO =        -0.00000000
  eigenvalues    EBANDS =      -155.50629241
  atomic energy  EATOM  =      3759.73604014
  Solvation  Ediel_sol  =         0.00000000
  ---------------------------------------------------
  free energy    TOTEN  =      -127.87415500 eV

  energy without entropy =     -127.87415500  energy(sigma->0) =     -127.87415500


--------------------------------------------------------------------------------------------------------




--------------------------------------- Iteration      1(  21)  ---------------------------------------


    POTLOK:  cpu time    0.0023: real time    0.0023
    SETDIJ:  cpu time    0.0025: real time    0.0025
    EDDIAG:  cpu time    0.0955: real time    0.0958
  RMM-DIIS:  cpu time    0.1298: real time    0.1301
    ORTHCH:  cpu time    0.0093: real time    0.0093
       DOS:  cpu time    0.0003: real time    0.0003
    --------------------------------------------
      LOOP:  cpu time    0.2397: real time    0.2403

 eigenvalue-minimisations  :  1439
 total energy-change (2. order) : 0.5865894E-05  (-0.1797067E-05)
 number of electron      64.0000002 magnetization 
 augmentation part        6.1025593 magnetization 

 Free energy of the ion-electron system (eV)
  ---------------------------------------------------
  alpha Z        PSCENC =       238.81820658
  Ewald energy   TEWEN  =     -3145.54243441
  -Hartree energ DENC   =     -1062.00608238
  -exchange      EXHF   =         0.00000000
  -V(xc)+E(xc)   XCENC  =        28.27433660
  PAW double counting   =      8916.93307466    -8708.50602386
  entropy T*S    EENTRO =        -0.00000000
  eigenvalues    EBANDS =      -155.58126647
  atomic energy  EATOM  =      3759.73604014
  Solvation  Ediel_sol  =         0.00000000
  ---------------------------------------------------
  free energy    TOTEN  =      -127.87414914 eV

  energy without entropy =     -127.87414914  energy(sigma->0) =     -127.87414914


--------------------------------------------------------------------------------------------------------




 average (electrostatic) potential at core
  the test charge radii are     1.2481  0.7215
  (the norm of the test charge is              1.0000)
       1 -35.6182       2 -35.6182       3 -35.6182       4 -35.6182       5 -70.4114
       6 -70.4114       7 -70.4114       8 -70.4114       9 -71.1845      10 -71.1845
      11 -71.1845      12 -71.1845
 
 
 
 E-fermi :   4.1361     XC(G=0): -12.0123     alpha+bet :-12.9538


 k-point     1 :       0.0000    0.0000    0.0000
  band No.  band energies     occupation 
      1     -14.3369      2.00000
      2     -13.1693      2.00000
      3     -12.6691      2.00000
      4     -12.6560      2.00000
      5     -12.1803      2.00000
      6     -12.1638      2.00000
      7     -11.9545      2.00000
      8     -11.5125      2.00000
      9      -2.2453      2.00000
     10      -2.2384      2.00000
     11      -1.7764      2.00000
     12      -1.6633      2.00000
     13      -1.1583      2.00000
     14      -1.0557      2.00000
     15       0.1069      2.00000
     16       0.2884      2.00000
     17       0.3140      2.00000
     18       0.6452      2.00000
     19       0.7440      2.00000
     20       1.1390      2.00000
     21       1.2903      2.00000
     22       1.4432      2.00000
     23       1.8886      2.00000
     24       2.0099      2.00000
     25       2.3038      2.00000
     26       2.4581      2.00000
     27       2.6563      2.00000
     28       3.1624      2.00000
     29       3.2565      2.00000
     30       3.5056      2.00000
     31       3.8313      2.00000
     32       3.8479      2.00000
     33       8.5892      0.00000
     34       8.6511      0.00000
     35       8.8962      0.00000
     36       9.0921      0.00000
     37       9.4195      0.00000
     38       9.5505      0.00000
     39      10.0446      0.00000
     40      10.2288      0.00000
     41      10.4021      0.00000
     42      10.6652      0.00000

 k-point     2 :       0.2500    0.0000    0.0000
  band No.  band energies     occupation 
      1     -14.0851      2.00000
      2     -13.0820      2.00000
      3     -12.7496      2.00000
      4     -12.6511      2.00000
      5     -12.3851      2.00000
      6     -12.2124      2.00000
      7     -11.9935      2.00000
      8     -11.5928      2.00000
      9      -1.9600      2.00000
     10      -1.9212      2.00000
     11      -1.7222      2.00000
     12      -1.5137      2.00000
     13      -0.9774      2.00000
     14      -0.5971      2.00000
     15      -0.4345      2.00000
     16      -0.0332      2.00000
     17       0.0709      2.00000
     18       0.4598      2.00000
     19       0.6565      2.00000
     20       1.1850      2.00000
     21       1.2394      2.00000
     22       1.4466      2.00000
     23       1.6094      2.00000
     24       1.8728      2.00000
     25       2.0692      2.00000
     26       2.5585      2.00000
     27       2.6531      2.00000
     28       3.3034      2.00000
     29       3.4198      2.00000
     30       3.4561      2.00000
     31       3.7712      2.00000
     32       3.8721      2.00000
     33       8.6421      0.00000
     34       8.8353      0.00000
     35       8.8696      0.00000
     36       9.0812      0.00000
     37       9.5089      0.00000
     38       9.7534      0.00000
     39       9.9700      0.00000
     40      10.3076      0.00000
     41      10.5414      0.00000
     42      10.6644      0.00000

 k-point     3 :       0.5000    0.0000    0.0000
  band No.  band energies     occupation 
      1     -13.5454      2.00000
      2     -13.2822      2.00000
      3     -12.9529      2.00000
      4     -12.6880      2.00000
      5     -12.4378      2.00000
      6     -12.2572      2.00000
      7     -11.9794      2.00000
      8     -11.7135      2.00000
      9      -1.5612      2.00000
     10      -1.4384      2.00000
     11      -1.3722      2.00000
     12      -1.1860      2.00000
     13      -1.1349      2.00000
     14      -0.9772      2.00000
     15      -0.3792      2.00000
     16      -0.2862      2.00000
     17      -0.1632      2.00000
     18       0.0687      2.00000
     19       0.6584      2.00000
     20       1.0961      2.00000
     21       1.1793      2.00000
     22       1.3605      2.00000
     23       1.6690      2.00000
     24       1.7474      2.00000
     25       1.9770      2.00000
     26       2.1131      2.00000
     27       2.8011      2.00000
     28       3.3595      2.00000
     29       3.4744      2.00000
     30       3.6096      2.00000
     31       3.7677      2.00000
     32       3.8401      2.00000
     33       8.6722      0.00000
     34       8.7459      0.00000
     35       9.0038      0.00000
     36       9.1208      0.00000
     37       9.6663      0.00000
     38       9.8736      0.00000
     39      10.1672      0.00000
     40      10.4387      0.00000
     41      10.5080      0.00000
     42      10.7585      0.00000

 k-point     4 :       0.0000    0.2500    0.0000
  band No.  band energies     occupation 
      1     -14.1168      2.00000
      2     -13.2251      2.00000
      3     -12.6464      2.00000
      4     -12.6259      2.00000
      5     -12.2240      2.00000
      6     -12.1535      2.00000
      7     -12.1198      2.00000
      8     -11.6370      2.00000
      9      -1.9630      2.00000
     10      -1.9028      2.00000
     11      -1.6994      2.00000
     12      -1.5819      2.00000
     13      -0.8626      2.00000
     14      -0.5733      2.00000
     15      -0.3644      2.00000
     16      -0.0575      2.00000
     17       0.0785      2.00000
     18       0.4024      2.00000
     19       0.7940      2.00000
     20       0.8307      2.00000
     21       1.2456      2.00000
     22       1.7101      2.00000
     23       1.8076      2.00000
     24       2.3373      2.00000
     25       2.4506      2.00000
     26       2.4844      2.00000
     27       2.6414      2.00000
     28       2.7050      2.00000
     29       3.0516      2.00000
     30       3.2169      2.00000
     31       3.4066      2.00000
     32       3.8731      2.00000
     33       8.8757      0.00000
     34       9.0286      0.00000
     35       9.3139      0.00000
     36       9.3274      0.00000
     37       9.3764      0.00000
     38       9.4953      0.00000
     39       9.7126      0.00000
     40      10.0651      0.00000
     41      10.7047      0.00000
     42      10.7934      0.00000

 k-point     5 :       0.2500    0.2500    0.0000
  band No.  band energies     occupation 
      1     -13.9094      2.00000
      2     -13.1612      2.00000
      3     -12.7924      2.00000
      4     -12.7240      2.00000
      5     -12.3112      2.00000
      6     -12.1389      2.00000
      7     -12.0887      2.00000
      8     -11.6908      2.00000
      9      -1.8614      2.00000
     10      -1.6156      2.00000
     11      -1.4864      2.00000
     12      -1.3444      2.00000
     13      -0.8388      2.00000
     14      -0.7034      2.00000
     15      -0.5433      2.00000
     16       0.0113      2.00000
     17       0.3541      2.00000
     18       0.4992      2.00000
     19       0.7473      2.00000
     20       0.7584      2.00000
     21       0.9390      2.00000
     22       1.4434      2.00000
     23       1.7430      2.00000
     24       1.8474      2.00000
     25       2.0859      2.00000
     26       2.5968      2.00000
     27       2.6455      2.00000
     28       2.7553      2.00000
     29       3.2060      2.00000
     30       3.2813      2.00000
     31       3.5197      2.00000
     32       3.7721      2.00000
     33       8.7843      0.00000
     34       8.7872      0.00000
     35       9.0220      0.00000
     36       9.2014      0.00000
     37       9.4942      0.00000
     38       9.6643      0.00000
     39      10.0348      0.00000
     40      10.1946      0.00000
     41      10.5101      0.00000
     42      10.9853      0.00000

 k-point     6 :       0.5000    0.2500    0.0000
  band No.  band energies     occupation 
      1     -13.4665      2.00000
      2     -13.2576      2.00000
      3     -13.0494      2.00000
      4     -12.8558      2.00000
      5     -12.3086      2.00000
      6     -12.1824      2.00000
      7     -11.9643      2.00000
      8     -11.7981      2.00000
      9      -1.5572      2.00000
     10      -1.4722      2.00000
     11      -1.1737      2.00000
     12      -1.1709      2.00000
     13      -0.9864      2.00000
     14      -0.7867      2.00000
     15      -0.1523      2.00000
     16       0.0252      2.00000
     17       0.1364      2.00000
     18       0.4011      2.00000
     19       0.5184      2.00000
     20       0.8730      2.00000
     21       0.9233      2.00000
     22       1.1631      2.00000
     23       1.6109      2.00000
     24       1.8434      2.00000
     25       1.8665      2.00000
     26       1.8861      2.00000
     27       2.7940      2.00000
     28       2.9339      2.00000
     29       3.2746      2.00000
     30       3.3636      2.00000
     31       3.6122      2.00000
     32       3.6874      2.00000
     33       8.5290      0.00000
     34       8.7678      0.00000
     35       8.7898      0.00000
     36       9.1440      0.00000
     37       9.6806      0.00000
     38       9.7686      0.00000
     39      10.1151      0.00000
     40      10.2193      0.00000
     41      10.4549      0.00000
     42      10.9619      0.00000

 k-point     7 :       0.0000    0.5000    0.0000
  band No.  band energies     occupation 
      1     -13.5956      2.00000
      2     -13.5956      2.00000
      3     -12.6114      2.00000
      4     -12.6114      2.00000
      5     -12.3096      2.00000
      6     -12.3096      2.00000
      7     -11.9087      2.00000
      8     -11.9087      2.00000
      9      -1.7300      2.00000
     10      -1.7300      2.00000
     11      -1.0438      2.00000
     12      -1.0438      2.00000
     13      -0.6344      2.00000
     14      -0.6344      2.00000
     15      -0.5941      2.00000
     16      -0.5941      2.00000
     17      -0.1829      2.00000
     18      -0.1829      2.00000
     19       1.2199      2.00000
     20       1.2199      2.00000
     21       1.3228      2.00000
     22       1.3228      2.00000
     23       1.8352      2.00000
     24       1.8352      2.00000
     25       2.1711      2.00000
     26       2.1711      2.00000
     27       2.8034      2.00000
     28       2.8034      2.00000
     29       2.8606      2.00000
     30       2.8606      2.00000
     31       3.6837      2.00000
     32       3.6837      2.00000
     33       9.1875      0.00000
     34       9.1894      0.00000
     35       9.4593      0.00000
     36       9.4642      0.00000
     37       9.4937      0.00000
     38       9.5074      0.00000
     39       9.9211      0.00000
     40       9.9328      0.00000
     41      10.6835      0.00000
     42      10.7819      0.00000

 k-point     8 :       0.2500    0.5000    0.0000
  band No.  band energies     occupation 
      1     -13.4891      2.00000
      2     -13.4891      2.00000
      3     -12.8255      2.00000
      4     -12.8255      2.00000
      5     -12.1931      2.00000
      6     -12.1931      2.00000
      7     -11.9324      2.00000
      8     -11.9324      2.00000
      9      -1.6122      2.00000
     10      -1.6122      2.00000
     11      -1.0321      2.00000
     12      -1.0321      2.00000
     13      -0.7685      2.00000
     14      -0.7685      2.00000
     15      -0.1696      2.00000
     16      -0.1696      2.00000
     17       0.1189      2.00000
     18       0.1189      2.00000
     19       0.6826      2.00000
     20       0.6826      2.00000
     21       1.4647      2.00000
     22       1.4647      2.00000
     23       1.7837      2.00000
     24       1.7837      2.00000
     25       2.0704      2.00000
     26       2.0704      2.00000
     27       2.4169      2.00000
     28       2.4169      2.00000
     29       3.0054      2.00000
     30       3.0054      2.00000
     31       3.6517      2.00000
     32       3.6517      2.00000
     33       8.7623      0.00000
     34       8.7643      0.00000
     35       9.0827      0.00000
     36       9.0869      0.00000
     37       9.7116      0.00000
     38       9.7282      0.00000
     39       9.9231      0.00000
     40       9.9777      0.00000
     41      10.8568      0.00000
     42      11.0267      0.00000

 k-point     9 :       0.5000    0.5000    0.0000
  band No.  band energies     occupation 
      1     -13.2667      2.00000
      2     -13.2667      2.00000
      3     -13.1173      2.00000
      4     -13.1173      2.00000
      5     -12.0759      2.00000
      6     -12.0759      2.00000
[...]
     37       9.4119      0.00000
     38       9.4119      0.00000
     39       9.7182      0.00000
     40       9.7182      0.00000
     41      10.6564      0.00000
     42      10.6564      0.00000

 k-point    23 :       0.2500    0.2500    0.5000
  band No.  band energies     occupation 
      1     -13.3674      2.00000
      2     -13.3343      2.00000
      3     -12.8122      2.00000
      4     -12.7988      2.00000
      5     -12.2441      2.00000
      6     -12.2283      2.00000
      7     -12.0850      2.00000
      8     -12.0386      2.00000
      9      -1.1776      2.00000
     10      -1.1094      2.00000
     11      -0.7909      2.00000
     12      -0.7323      2.00000
     13      -0.5550      2.00000
     14      -0.3129      2.00000
     15      -0.0829      2.00000
     16      -0.0012      2.00000
     17       0.3313      2.00000
     18       0.3830      2.00000
     19       0.6976      2.00000
     20       0.8538      2.00000
     21       1.4007      2.00000
     22       1.4151      2.00000
     23       1.6987      2.00000
     24       1.9138      2.00000
     25       2.1663      2.00000
     26       2.2461      2.00000
     27       2.3311      2.00000
     28       2.4732      2.00000
     29       2.7472      2.00000
     30       2.9320      2.00000
     31       3.0619      2.00000
     32       3.2873      2.00000
     33       8.1699      0.00000
     34       8.6244      0.00000
     35       8.8335      0.00000
     36       8.9102      0.00000
     37       9.1925      0.00000
     38       9.2221      0.00000
     39       9.6835      0.00000
     40       9.9732      0.00000
     41      10.3801      0.00000
     42      10.7752      0.00000

 k-point    24 :       0.5000    0.2500    0.5000
  band No.  band energies     occupation 
      1     -13.3105      2.00000
      2     -13.3105      2.00000
      3     -12.8822      2.00000
      4     -12.8822      2.00000
      5     -12.2146      2.00000
      6     -12.2146      2.00000
      7     -12.0460      2.00000
      8     -12.0460      2.00000
      9      -1.0535      2.00000
     10      -1.0535      2.00000
     11      -0.7542      2.00000
     12      -0.7542      2.00000
     13      -0.4845      2.00000
     14      -0.4845      2.00000
     15       0.0023      2.00000
     16       0.0023      2.00000
     17       0.6047      2.00000
     18       0.6047      2.00000
     19       0.8148      2.00000
     20       0.8148      2.00000
     21       1.4240      2.00000
     22       1.4240      2.00000
     23       1.5714      2.00000
     24       1.5714      2.00000
     25       2.2260      2.00000
     26       2.2260      2.00000
     27       2.4461      2.00000
     28       2.4461      2.00000
     29       2.6321      2.00000
     30       2.6321      2.00000
     31       3.1429      2.00000
     32       3.1429      2.00000
     33       8.1099      0.00000
     34       8.1099      0.00000
     35       8.7411      0.00000
     36       8.7411      0.00000
     37       9.1062      0.00000
     38       9.1062      0.00000
     39       9.8598      0.00000
     40       9.8598      0.00000
     41      10.4738      0.00000
     42      10.4738      0.00000

 k-point    25 :       0.0000    0.5000    0.5000
  band No.  band energies     occupation 
      1     -13.0697      2.00000
      2     -13.0697      2.00000
      3     -13.0697      2.00000
      4     -13.0697      2.00000
      5     -12.1681      2.00000
      6     -12.1681      2.00000
      7     -12.1681      2.00000
      8     -12.1681      2.00000
      9      -0.8035      2.00000
     10      -0.8035      2.00000
     11      -0.8035      2.00000
     12      -0.8035      2.00000
     13      -0.0861      2.00000
     14      -0.0861      2.00000
     15      -0.0861      2.00000
     16      -0.0861      2.00000
     17       0.3325      2.00000
     18       0.3325      2.00000
     19       0.3325      2.00000
     20       0.3325      2.00000
     21       1.4221      2.00000
     22       1.4221      2.00000
     23       1.4221      2.00000
     24       1.4221      2.00000
     25       2.2926      2.00000
     26       2.2926      2.00000
     27       2.2926      2.00000
     28       2.2926      2.00000
     29       3.0181      2.00000
     30       3.0181      2.00000
     31       3.0181      2.00000
     32       3.0181      2.00000
     33       8.6975      0.00000
     34       8.6975      0.00000
     35       8.6975      0.00000
     36       8.6975      0.00000
     37       9.8011      0.00000
     38       9.8011      0.00000
     39       9.8011      0.00000
     40       9.8011      0.00000
     41      10.7411      0.00000
     42      10.7411      0.00000

 k-point    26 :       0.2500    0.5000    0.5000
  band No.  band energies     occupation 
      1     -13.1279      2.00000
      2     -13.1279      2.00000
      3     -13.0996      2.00000
      4     -13.0996      2.00000
      5     -12.1358      2.00000
      6     -12.1358      2.00000
      7     -12.0989      2.00000
      8     -12.0989      2.00000
      9      -0.8167      2.00000
     10      -0.8167      2.00000
     11      -0.7139      2.00000
     12      -0.7139      2.00000
     13      -0.2706      2.00000
     14      -0.2706      2.00000
     15      -0.1590      2.00000
     16      -0.1590      2.00000
     17       0.5234      2.00000
     18       0.5234      2.00000
     19       0.6026      2.00000
     20       0.6026      2.00000
     21       1.4629      2.00000
     22       1.4629      2.00000
     23       1.5797      2.00000
     24       1.5797      2.00000
     25       2.0438      2.00000
     26       2.0438      2.00000
     27       2.1638      2.00000
     28       2.1638      2.00000
     29       2.8700      2.00000
     30       2.8700      2.00000
     31       3.1446      2.00000
     32       3.1446      2.00000
     33       8.2300      0.00000
     34       8.2300      0.00000
     35       8.7473      0.00000
     36       8.7473      0.00000
     37       9.4190      0.00000
     38       9.4190      0.00000
     39       9.7583      0.00000
     40       9.7583      0.00000
     41      10.4827      0.00000
     42      10.8383      0.00000

 k-point    27 :       0.5000    0.5000    0.5000
  band No.  band energies     occupation 
      1     -13.1543      2.00000
      2     -13.1543      2.00000
      3     -13.1543      2.00000
      4     -13.1543      2.00000
      5     -12.0703      2.00000
      6     -12.0703      2.00000
      7     -12.0703      2.00000
      8     -12.0703      2.00000
      9      -0.7155      2.00000
     10      -0.7155      2.00000
     11      -0.7155      2.00000
     12      -0.7155      2.00000
     13      -0.2855      2.00000
     14      -0.2855      2.00000
     15      -0.2855      2.00000
     16      -0.2855      2.00000
     17       0.7056      2.00000
     18       0.7056      2.00000
     19       0.7056      2.00000
     20       0.7056      2.00000
     21       1.4948      2.00000
     22       1.4948      2.00000
     23       1.4948      2.00000
     24       1.4948      2.00000
     25       2.1718      2.00000
     26       2.1718      2.00000
     27       2.1718      2.00000
     28       2.1718      2.00000
     29       2.8848      2.00000
     30       2.8848      2.00000
     31       2.8848      2.00000
     32       2.8848      2.00000
     33       8.1845      0.00000
     34       8.1845      0.00000
     35       8.1845      0.00000
     36       8.1845      0.00000
     37       9.5215      0.00000
     38       9.5215      0.00000
     39       9.5215      0.00000
     40       9.5215      0.00000
     41      10.6671      0.00000
     42      10.6671      0.00000


--------------------------------------------------------------------------------------------------------


 soft charge-density along one line, spin component           1
         0         1         2         3         4         5         6         7         8         9
 total charge-density along one line
 
 pseudopotential strength for first ion, spin component:           1
 -5.259  -0.003  -0.000  -0.001  -0.004  -6.533  -0.003  -0.000
 -0.003  -5.265   0.002  -0.005  -0.000  -0.003  -6.541   0.002
 -0.000   0.002  -5.271  -0.005  -0.003  -0.000   0.002  -6.548
 -0.001  -0.005  -0.005  -5.260   0.002  -0.001  -0.007  -0.007
 -0.004  -0.000  -0.003   0.002  -5.269  -0.004  -0.000  -0.003
 -6.533  -0.003  -0.000  -0.001  -0.004  -8.097  -0.004  -0.000
 -0.003  -6.541   0.002  -0.007  -0.000  -0.004  -8.107   0.003
 -0.000   0.002  -6.548  -0.007  -0.003  -0.000   0.003  -8.116
 -0.001  -0.007  -0.007  -6.533   0.002  -0.001  -0.008  -0.009
 -0.004  -0.000  -0.003   0.002  -6.545  -0.006  -0.000  -0.004
  0.001   0.001   0.002   0.002  -0.002   0.002   0.001   0.002
  0.002   0.002   0.003   0.003  -0.003   0.003   0.002   0.004
  0.010   0.001  -0.006   0.002  -0.007   0.013   0.001  -0.008
  0.002   0.002  -0.001   0.009  -0.004   0.003   0.002  -0.001
  0.005   0.002  -0.007  -0.008   0.012   0.006   0.003  -0.009
 -0.012  -0.004   0.010  -0.003   0.012  -0.015  -0.005   0.012
 -0.003  -0.002  -0.002  -0.011   0.006  -0.004  -0.003  -0.002
 -0.007  -0.003   0.009   0.009  -0.015  -0.009  -0.004   0.012
 total augmentation occupancy for first ion, spin component:           1
 11.114  -0.786  -1.037  -0.542  -2.157  -7.196   0.536   0.672   0.359   1.440  -0.293   0.070   0.128   0.265   0.325  -0.001
 -0.786  10.137   1.328  -1.777  -0.026   0.536  -6.535  -0.906   1.190   0.019   0.092  -0.017   0.121   0.302   0.265   0.005
 -1.037   1.328   5.821  -2.520  -0.006   0.673  -0.907  -3.661   1.678   0.008  -0.135   0.025   0.277   0.176   0.186   0.012
 -0.542  -1.777  -2.520  11.081   2.024   0.359   1.189   1.679  -7.185  -1.348  -0.120   0.038   0.262   0.069  -0.006   0.005
 -2.157  -0.026  -0.006   2.024   5.861   1.441   0.020   0.009  -1.348  -3.697   0.239  -0.052   0.492  -0.083  -0.337   0.017
 -7.196   0.536   0.673   0.359   1.441   4.695  -0.366  -0.442  -0.240  -0.969   0.194  -0.047  -0.088  -0.171  -0.213  -0.000
  0.536  -6.535  -0.907   1.189   0.020  -0.366   4.245   0.621  -0.802  -0.013  -0.062   0.013  -0.083  -0.197  -0.171  -0.004
  0.672  -0.906  -3.661   1.679   0.009  -0.442   0.621   2.318  -1.126  -0.008   0.088  -0.017  -0.174  -0.111  -0.115  -0.008
  0.359   1.190   1.678  -7.185  -1.348  -0.240  -0.802  -1.126   4.695   0.905   0.081  -0.025  -0.170  -0.053   0.011  -0.004
  1.440   0.019   0.008  -1.348  -3.697  -0.969  -0.013  -0.008   0.905   2.347  -0.156   0.035  -0.313   0.060   0.214  -0.011
 -0.293   0.092  -0.135  -0.120   0.239   0.194  -0.062   0.088   0.081  -0.156   2.126  -0.344   0.013   0.024  -0.034  -0.001
  0.070  -0.017   0.025   0.038  -0.052  -0.047   0.013  -0.017  -0.025   0.035  -0.344   0.069  -0.004  -0.000  -0.007   0.000
  0.128   0.121   0.277   0.262   0.492  -0.088  -0.083  -0.174  -0.170  -0.313   0.013  -0.004   0.459   0.005  -0.021   0.013
  0.265   0.302   0.176   0.069  -0.083  -0.171  -0.197  -0.111  -0.053   0.060   0.024  -0.000   0.005   0.469  -0.015  -0.000
  0.325   0.265   0.186  -0.006  -0.337  -0.213  -0.171  -0.115   0.011   0.214  -0.034  -0.007  -0.021  -0.015   0.500  -0.000
 -0.001   0.005   0.012   0.005   0.017  -0.000  -0.004  -0.008  -0.004  -0.011  -0.001   0.000   0.013  -0.000  -0.000   0.001
  0.004   0.009   0.006   0.001  -0.001  -0.003  -0.006  -0.004  -0.001   0.001   0.002  -0.000  -0.000   0.012  -0.001   0.000
  0.005   0.004   0.006   0.005  -0.010  -0.004  -0.003  -0.004  -0.003   0.007  -0.001  -0.000  -0.000  -0.001   0.013  -0.000


------------------------ aborting loop because EDIFF is reached ----------------------------------------


    CHARGE:  cpu time    0.0217: real time    0.0218
    FORLOC:  cpu time    0.0010: real time    0.0010
    FORNL :  cpu time    0.1101: real time    0.1103
    STRESS:  cpu time    0.2015: real time    0.2020
    FORCOR:  cpu time    0.0031: real time    0.0031
    FORHAR:  cpu time    0.0024: real time    0.0024
    MIXING:  cpu time    0.0003: real time    0.0003
    OFIELD:  cpu time    0.0000: real time    0.0000

  FORCE on cell =-STRESS in cart. coord.  units (eV):
  Direction    XX          YY          ZZ          XY          YZ          ZX
  --------------------------------------------------------------------------------------
  Alpha Z   238.81821   238.81821   238.81821
  Ewald   -1060.44620 -1076.03757 -1032.65712    -0.00000    -0.00000     0.00000
  Hartree   331.89207   334.54655   383.47751    -0.00000    -0.00000    -0.00000
  E(xc)    -308.89525  -307.54855  -307.35759    -0.00000    -0.00000     0.00000
  Local    -308.33632  -293.39508  -391.72298    -0.00000    -0.00000     0.00000
  n-local  -143.88149  -149.36604  -150.25185    -0.15535    -0.07793    -0.14295
  augment    63.75848    64.09768    64.95102     0.00000    -0.00000    -0.00000
  Kinetic  1178.75345  1181.10422  1195.07654    -0.38885    -0.07327    -0.25732
  Fock        0.00000     0.00000     0.00000     0.00000     0.00000     0.00000
  -------------------------------------------------------------------------------------
  Total      -8.33706    -7.78059     0.33374     0.00000     0.00000     0.00000
  in kB    -102.15728   -95.33863     4.08946     0.00000     0.00000     0.00000
  external pressure =      -64.47 kB  Pullay stress =        0.00 kB


 VOLUME and BASIS-vectors are now :
 -----------------------------------------------------------------------------
  energy-cutoff  :      500.00
  volume of cell :      130.75
      direct lattice vectors                 reciprocal lattice vectors
     5.075568000  0.000000000  0.000000000     0.197022284  0.000000000  0.000000000
     0.000000000  5.075568000  0.000000000     0.000000000  0.197022284  0.000000000
     0.000000000  0.000000000  5.075568000     0.000000000  0.000000000  0.197022284

  length of vectors
     5.075568000  5.075568000  5.075568000     0.197022284  0.197022284  0.197022284


 FORCES acting on ions
    electron-ion (+dipol)            ewald-force                    non-local-force                 convergence-correction
 -----------------------------------------------------------------------------------------------
   0.870E+01 -.295E+01 0.118E+02   -.971E+01 0.259E+01 -.109E+02   0.102E+01 0.359E+00 -.902E+00   -.505E-03 -.733E-04 -.488E-04
   0.870E+01 -.295E+01 -.118E+02   -.971E+01 0.259E+01 0.109E+02   0.102E+01 0.359E+00 0.902E+00   -.505E-03 -.733E-04 0.488E-04
   -.870E+01 -.295E+01 0.118E+02   0.971E+01 0.259E+01 -.109E+02   -.102E+01 0.359E+00 -.902E+00   0.505E-03 -.733E-04 -.488E-04
   -.870E+01 -.295E+01 -.118E+02   0.971E+01 0.259E+01 0.109E+02   -.102E+01 0.359E+00 0.902E+00   0.505E-03 -.733E-04 0.488E-04
   0.229E+02 -.410E+01 -.910E+00   -.262E+02 0.402E+01 0.216E+01   0.333E+01 0.754E-01 -.126E+01   -.111E-02 0.131E-03 -.186E-02
   0.229E+02 -.410E+01 0.910E+00   -.262E+02 0.402E+01 -.216E+01   0.333E+01 0.754E-01 0.126E+01   -.111E-02 0.131E-03 0.186E-02
   -.229E+02 -.410E+01 0.910E+00   0.262E+02 0.402E+01 -.216E+01   -.333E+01 0.754E-01 0.126E+01   0.111E-02 0.131E-03 0.186E-02
   -.229E+02 -.410E+01 -.910E+00   0.262E+02 0.402E+01 0.216E+01   -.333E+01 0.754E-01 -.126E+01   0.111E-02 0.131E-03 -.186E-02
   0.156E+02 0.596E+01 -.762E+01   -.153E+02 -.661E+01 0.899E+01   -.308E+00 0.653E+00 -.137E+01   -.267E-03 0.595E-03 0.742E-03
   0.156E+02 0.596E+01 0.762E+01   -.153E+02 -.661E+01 -.899E+01   -.308E+00 0.653E+00 0.137E+01   -.267E-03 0.595E-03 -.742E-03
   -.156E+02 0.596E+01 0.762E+01   0.153E+02 -.661E+01 -.899E+01   0.308E+00 0.653E+00 0.137E+01   0.267E-03 0.595E-03 -.742E-03
   -.156E+02 0.596E+01 -.762E+01   0.153E+02 -.661E+01 0.899E+01   0.308E+00 0.653E+00 -.137E+01   0.267E-03 0.595E-03 0.742E-03
 -----------------------------------------------------------------------------------------------
   -.410E-13 -.435E+01 -.187E-06   0.355E-13 0.124E-13 -.533E-14   -.555E-15 0.435E+01 -.222E-15   -.514E-12 0.261E-02 0.186E-11
 
 
 POSITION                                       TOTAL-FORCE (eV/Angst)
 -----------------------------------------------------------------------------------
      0.08433      0.18327      0.16182         0.002051     -0.000751      0.001339
      0.08433      2.72105      2.37596         0.002051     -0.000751     -0.001339
      2.45345      0.18327      2.69960        -0.002051     -0.000751      0.001339
      2.45345      2.72105     -0.16182        -0.002051     -0.000751     -0.001339
      1.07964      1.43560      3.73810        -0.002463     -0.003311     -0.006554
      1.07964      3.97338      3.87525        -0.002463     -0.003311      0.006554
      1.45815      3.97338      1.33747         0.002463     -0.003311      0.006554
      1.45815      1.43560      1.20031         0.002463     -0.003311     -0.006554
      4.15699      0.91892      1.85368        -0.001145      0.004062      0.001208
      4.15699      3.45670      0.68411        -0.001145      0.004062     -0.001208
      3.45637      3.45670      3.22189         0.001145      0.004062     -0.001208
      3.45637      0.91892      4.39146         0.001145      0.004062      0.001208
 -----------------------------------------------------------------------------------
    total drift:                               -0.000000      0.000149     -0.000000


--------------------------------------------------------------------------------------------------------



  FREE ENERGIE OF THE ION-ELECTRON SYSTEM (eV)
  ---------------------------------------------------
  free  energy   TOTEN  =      -132.99401635 eV

  energy  without entropy=     -132.99401635  energy(sigma->0) =     -132.99401635
 
 d Force = 0.4232292E-04[ 0.230E-04, 0.616E-04]  d Energy = 0.4350213E-04-0.118E-05
 d Force = 0.3890486E-01[ 0.387E-01, 0.391E-01]  d Ewald  = 0.3890489E-01-0.260E-07


--------------------------------------------------------------------------------------------------------


    POTLOK:  cpu time    0.0048: real time    0.0048


--------------------------------------------------------------------------------------------------------


 Conjugate gradient step on ions:
 trial-energy change:   -0.000044  1 .order   -0.000042   -0.000062   -0.000023
  (g-gl).g = 0.280E-04      g.g   = 0.392E-04  gl.gl    = 0.331E-03
 g(Force)  = 0.392E-04   g(Stress)= 0.000E+00 ortho     = 0.778E-05
 gamma     =   0.08470
 trial     =   1.54551
 opt step  =   2.46533  (harmonic =   2.46533) maximal distance =0.00111284
 next E    =  -132.994022   (d E  =  -0.00005)


--------------------------------------------------------------------------------------------------------


  
 reached required accuracy - stopping structural energy minimisation
     LOOP+:  cpu time    1.2242: real time    1.2345
    4ORBIT:  cpu time    0.0000: real time    0.0000

 total amount of memory used by VASP MPI-rank0    39021. kBytes
=======================================================================

   base      :      30000. kBytes
   nonl-proj :       4637. kBytes
   fftplans  :        957. kBytes
   grid      :       1546. kBytes
   one-center:         31. kBytes
   wavefun   :       1850. kBytes
 
  
  
 General timing and accounting informations for this job:
 ========================================================
  
                  Total CPU time used (sec):       83.737
                            User time (sec):       83.085
                          System time (sec):        0.652
                         Elapsed time (sec):       84.266
  
                   Maximum memory used (kb):      132048.
                   Average memory used (kb):           0.
  
                          Minor page faults:        58960
                          Major page faults:            0
                 Voluntary context switches:         2238
