<?xml version="1.0" encoding="ISO-8859-1"?>
<modeling>
 <generator>
  <i name="program" type="string">vasp </i>
  <i name="version" type="string">5.4.4.18Apr17-6-g9f103f2a35  </i>
  <i name="subversion" type="string">(build May 01 2019 17:50:46) complex            parallel </i>
  <i name="platform" type="string">LinuxIFC </i>
  <i name="date" type="string">2021 07 28 </i>
  <i name="time" type="string">07:28:54 </i>
 </generator>
 <incar>
  <i type="string" name="SYSTEM"> MoSe2</i>
  <i type="int" name="ISTART">     0</i>
  <i type="string" name="PREC">accurate</i>
  <i type="int" name="IALGO">    48</i>
  <i type="int" name="NSIM">     4</i>
  <i name="AMIN">      0.01000000</i>
  <i type="int" name="ICHARG">     2</i>
  <i type="int" name="NELM">   120</i>
  <i type="int" name="IBRION">     2</i>
  <i name="EDIFF">      0.00001000</i>
  <i name="EDIFFG">     -0.01000000</i>
  <i type="int" name="NSW">   800</i>
  <i type="int" name="ISIF">     2</i>
  <i name="ENCUT">    500.00000000</i>
  <i name="POTIM">      0.30000000</i>
  <i type="logical" name="LPLANE"> T  </i>
  <i type="int" name="ISMEAR">     0</i>
  <i name="SIGMA">      0.05000000</i>
  <i type="logical" name="LWAVE"> F  </i>
  <i type="logical" name="LCHARG"> F  </i>
  <i type="logical" name="LSCALU"> F  </i>
  <v type="int" name="KPOINT_BSE">    -1     0     0     0</v>
  <i type="int" name="NELM">   120</i>
 </incar>
 <structure name="primitive_cell" >
  <crystal>
   <varray name="basis" >
    <v>       5.07556800       0.00000000       0.00000000 </v>
    <v>       0.00000000       5.07556800       0.00000000 </v>
    <v>       0.00000000       0.00000000       5.07556800 </v>
   </varray>
   <i name="volume">    130.75368937 </i>
   <varray name="rec_basis" >
    <v>       0.19702228       0.00000000       0.00000000 </v>
    <v>       0.00000000       0.19702228       0.00000000 </v>
    <v>       0.00000000       0.00000000       0.19702228 </v>
   </varray>
  </crystal>
  <varray name="positions" >
   <v>       0.00000000       0.00000000       0.00000000 </v>
   <v>      -0.25000000       0.19542241      -0.13046522 </v>
   <v>       0.25000000      -0.19542241      -0.23666153 </v>
   <v>       0.25000000      -0.19542241       0.26333847 </v>
   <v>      -0.25000000      -0.30457759       0.13046522 </v>
   <v>       0.25000000       0.30457759       0.23666153 </v>
   <v>       0.25000000       0.30457759      -0.26333847 </v>
   <v>      -0.25000000       0.19542241       0.36953478 </v>
   <v>      -0.25000000      -0.30457759      -0.36953478 </v>
   <v>       0.00000000      -0.50000000      -0.50000000 </v>
   <v>      -0.50000000       0.00000000      -0.50000000 </v>
   <v>      -0.50000000      -0.50000000       0.00000000 </v>
  </varray>
 </structure>
 <varray name="primitive_index" >
  <v type="int" >        1 </v>
  <v type="int" >       12 </v>
  <v type="int" >        6 </v>
  <v type="int" >        7 </v>
  <v type="int" >       10 </v>
  <v type="int" >        8 </v>
  <v type="int" >        5 </v>
  <v type="int" >        9 </v>
  <v type="int" >       11 </v>
  <v type="int" >        2 </v>
  <v type="int" >        3 </v>
  <v type="int" >        4 </v>
 </varray>
 <kpoints>
  <generation param="Gamma">
   <v type="int" name="divisions">       4        4        4 </v>
   <v name="usershift">      0.00000000       0.00000000       0.00000000 </v>
   <v name="genvec1">      0.25000000       0.00000000       0.00000000 </v>
   <v name="genvec2">      0.00000000       0.25000000       0.00000000 </v>
   <v name="genvec3">      0.00000000       0.00000000       0.25000000 </v>
   <v name="shift">      0.00000000       0.00000000       0.00000000 </v>
  </generation>
  <varray name="kpointlist" >
   <v>       0.00000000       0.00000000       0.00000000 </v>
   <v>       0.25000000       0.00000000       0.00000000 </v>
   <v>       0.50000000       0.00000000       0.00000000 </v>
   <v>       0.00000000       0.25000000       0.00000000 </v>
   <v>       0.25000000       0.25000000       0.00000000 </v>
   <v>       0.50000000       0.25000000       0.00000000 </v>
   <v>       0.00000000       0.50000000       0.00000000 </v>
   <v>       0.25000000       0.50000000       0.00000000 </v>
   <v>       0.50000000       0.50000000       0.00000000 </v>
   <v>       0.00000000       0.00000000       0.25000000 </v>
   <v>       0.25000000       0.00000000       0.25000000 </v>
   <v>       0.50000000       0.00000000       0.25000000 </v>
   <v>       0.00000000       0.25000000       0.25000000 </v>
   <v>       0.25000000       0.25000000       0.25000000 </v>
   <v>       0.50000000       0.25000000       0.25000000 </v>
   <v>       0.00000000       0.50000000       0.25000000 </v>
   <v>       0.25000000       0.50000000       0.25000000 </v>
   <v>       0.50000000       0.50000000       0.25000000 </v>
   <v>       0.00000000       0.00000000       0.50000000 </v>
   <v>       0.25000000       0.00000000       0.50000000 </v>
   <v>       0.50000000       0.00000000       0.50000000 </v>
   <v>       0.00000000       0.25000000       0.50000000 </v>
   <v>       0.25000000       0.25000000       0.50000000 </v>
   <v>       0.50000000       0.25000000       0.50000000 </v>
   <v>       0.00000000       0.50000000       0.50000000 </v>
   <v>       0.25000000       0.50000000       0.50000000 </v>
   <v>       0.50000000       0.50000000       0.50000000 </v>
  </varray>
  <varray name="weights" >
   <v>       0.01562500 </v>
   <v>       0.03125000 </v>
   <v>       0.01562500 </v>
   <v>       0.03125000 </v>
   <v>       0.06250000 </v>
   <v>       0.03125000 </v>
   <v>       0.01562500 </v>
   <v>       0.03125000 </v>
   <v>       0.01562500 </v>
   <v>       0.03125000 </v>
   <v>       0.06250000 </v>
   <v>       0.03125000 </v>
   <v>       0.06250000 </v>
   <v>       0.12500000 </v>
   <v>       0.06250000 </v>
   <v>       0.03125000 </v>
   <v>       0.06250000 </v>
   <v>       0.03125000 </v>
   <v>       0.01562500 </v>
   <v>       0.03125000 </v>
   <v>       0.01562500 </v>
   <v>       0.03125000 </v>
   <v>       0.06250000 </v>
   <v>       0.03125000 </v>
   <v>       0.01562500 </v>
   <v>       0.03125000 </v>
   <v>       0.01562500 </v>
  </varray>
 </kpoints>
 <parameters>
  <separator name="general" >
   <i type="string" name="SYSTEM">MoSe2</i>
   <i type="logical" name="LCOMPAT"> F  </i>
  </separator>
  <separator name="electronic" >
   <i type="string" name="PREC">accura</i>
   <i name="ENMAX">    500.00000000</i>
   <i name="ENAUG">    605.39200000</i>
   <i name="EDIFF">      0.00001000</i>
   <i type="int" name="IALGO">    48</i>
   <i type="int" name="IWAVPR">    11</i>
   <i type="int" name="NBANDS">    42</i>
   <i name="NELECT">     64.00000000</i>
   <i type="int" name="TURBO">     0</i>
   <i type="int" name="IRESTART">     0</i>
   <i type="int" name="NREBOOT">     0</i>
   <i type="int" name="NMIN">     0</i>
   <i name="EREF">      0.00000000</i>
   <separator name="electronic smearing" >
    <i type="int" name="ISMEAR">     0</i>
    <i name="SIGMA">      0.05000000</i>
    <i name="KSPACING">      0.50000000</i>
    <i type="logical" name="KGAMMA"> T  </i>
   </separator>
   <separator name="electronic projectors" >
    <i type="logical" name="LREAL"> F  </i>
    <v name="ROPT">      0.00000000      0.00000000</v>
    <i type="int" name="LMAXPAW">  -100</i>
    <i type="int" name="LMAXMIX">     2</i>
    <i type="logical" name="NLSPLINE"> F  </i>
   </separator>
   <separator name="electronic startup" >
    <i type="int" name="ISTART">     0</i>
    <i type="int" name="ICHARG">     2</i>
    <i type="int" name="INIWAV">     1</i>
   </separator>
   <separator name="electronic spin" >
    <i type="int" name="ISPIN">     1</i>
    <i type="logical" name="LNONCOLLINEAR"> F  </i>
    <v name="MAGMOM">      1.00000000      1.00000000      1.00000000      1.00000000      1.00000000      1.00000000      1.00000000      1.00000000      1.00000000      1.00000000      1.00000000      1.00000000</v>
    <i name="NUPDOWN">     -1.00000000</i>
    <i type="logical" name="LSORBIT"> F  </i>
    <v name="SAXIS">      0.00000000      0.00000000      1.00000000</v>
    <i type="logical" name="LSPIRAL"> F  </i>
    <v name="QSPIRAL">      0.00000000      0.00000000      0.00000000</v>
    <i type="logical" name="LZEROZ"> F  </i>
   </separator>
   <separator name="electronic exchange-correlation" >
    <i type="logical" name="LASPH"> F  </i>
    <i type="logical" name="LMETAGGA"> F  </i>
   </separator>
   <separator name="electronic convergence" >
    <i type="int" name="NELM">   120</i>
    <i type="int" name="NELMDL">   -12</i>
    <i type="int" name="NELMIN">     2</i>
    <i name="ENINI">    500.00000000</i>
    <separator name="electronic convergence detail" >
     <i type="logical" name="LDIAG"> T  </i>
     <i type="logical" name="LSUBROT"> F  </i>
     <i name="WEIMIN">      0.00100000</i>
     <i name="EBREAK">      0.00000006</i>
     <i name="DEPER">      0.30000000</i>
     <i type="int" name="NRMM">     4</i>
     <i name="TIME">      0.40000000</i>
    </separator>
   </separator>
   <separator name="electronic mixer" >
    <i name="AMIX">      0.40000000</i>
    <i name="BMIX">      1.00000000</i>
    <i name="AMIN">      0.01000000</i>
    <i name="AMIX_MAG">      1.60000000</i>
    <i name="BMIX_MAG">      1.00000000</i>
    <separator name="electronic mixer details" >
     <i type="int" name="IMIX">     4</i>
     <i type="logical" name="MIXFIRST"> F  </i>
     <i type="int" name="MAXMIX">   -45</i>
     <i name="WC">    100.00000000</i>
     <i type="int" name="INIMIX">     1</i>
     <i type="int" name="MIXPRE">     1</i>
     <i type="int" name="MREMOVE">     5</i>
    </separator>
   </separator>
   <separator name="electronic dipolcorrection" >
    <i type="logical" name="LDIPOL"> F  </i>
    <i type="logical" name="LMONO"> F  </i>
    <i type="int" name="IDIPOL">     0</i>
    <i name="EPSILON">      1.00000000</i>
    <v name="DIPOL">   -100.00000000   -100.00000000   -100.00000000</v>
    <i name="EFIELD">      0.00000000</i>
   </separator>
  </separator>
  <separator name="grids" >
   <i type="int" name="NGX">    40</i>
   <i type="int" name="NGY">    40</i>
   <i type="int" name="NGZ">    40</i>
   <i type="int" name="NGXF">    80</i>
   <i type="int" name="NGYF">    80</i>
   <i type="int" name="NGZF">    80</i>
   <i type="logical" name="ADDGRID"> F  </i>
  </separator>
  <separator name="ionic" >
   <i type="int" name="NSW">   800</i>
   <i type="int" name="IBRION">     2</i>
   <i type="int" name="MDALGO">     0</i>
   <i type="int" name="ISIF">     2</i>
   <i name="PSTRESS">      0.00000000</i>
   <i name="EDIFFG">     -0.01000000</i>
   <i type="int" name="NFREE">     1</i>
   <i name="POTIM">      0.30000000</i>
   <i name="SMASS">     -3.00000000</i>
   <i name="SCALEE">      1.00000000</i>
  </separator>
  <separator name="ionic md" >
   <i name="TEBEG">      0.00010000</i>
   <i name="TEEND">      0.00010000</i>
   <i type="int" name="NBLOCK">     1</i>
   <i type="int" name="KBLOCK">   800</i>
   <i type="int" name="NPACO">   256</i>
   <i name="APACO">     16.00000000</i>
  </separator>
  <separator name="symmetry" >
   <i type="int" name="ISYM">     2</i>
   <i name="SYMPREC">      0.00001000</i>
  </separator>
  <separator name="dos" >
   <i type="int" name="LORBIT">     0</i>
   <v name="RWIGS">     -1.00000000     -1.00000000</v>
   <i type="int" name="NEDOS">   301</i>
   <i name="EMIN">     10.00000000</i>
   <i name="EMAX">    -10.00000000</i>
   <i name="EFERMI">      0.00000000</i>
  </separator>
  <separator name="writing" >
   <i type="int" name="NWRITE">     2</i>
   <i type="logical" name="LWAVE"> F  </i>
   <i type="logical" name="LDOWNSAMPLE"> F  </i>
   <i type="logical" name="LCHARG"> F  </i>
   <i type="logical" name="LPARD"> F  </i>
   <i type="logical" name="LVTOT"> F  </i>
   <i type="logical" name="LVHAR"> F  </i>
   <i type="logical" name="LELF"> F  </i>
   <i type="logical" name="LOPTICS"> F  </i>
   <v name="STM">      0.00000000      0.00000000      0.00000000      0.00000000      0.00000000      0.00000000      0.00000000</v>
  </separator>
  <separator name="performance" >
   <i type="int" name="NPAR">     6</i>
   <i type="int" name="NSIM">     4</i>
   <i type="int" name="NBLK">    -1</i>
   <i type="logical" name="LPLANE"> T  </i>
   <i type="logical" name="LSCALAPACK"> T  </i>
   <i type="logical" name="LSCAAWARE"> F  </i>
   <i type="logical" name="LSCALU"> F  </i>
   <i type="logical" name="LASYNC"> F  </i>
   <i type="logical" name="LORBITALREAL"> F  </i>
  </separator>
  <separator name="miscellaneous" >
   <i type="int" name="IDIOT">     3</i>
   <i type="int" name="ISPECIAL">     0</i>
   <i type="logical" name="LMUSIC"> F  </i>
   <v name="POMASS">    178.49000000     16.00000000</v>
   <v name="DARWINR">      0.00000000      0.00000000</v>
   <v name="DARWINV">      1.00000000      1.00000000</v>
   <i type="logical" name="LCORR"> T  </i>
  </separator>
  <i type="logical" name="GGA_COMPAT"> T  </i>
  <i type="logical" name="LBERRY"> F  </i>
  <i type="int" name="ICORELEVEL">     0</i>
  <i type="logical" name="LDAU"> F  </i>
  <i type="int" name="I_CONSTRAINED_M">     0</i>
  <separator name="electronic exchange-correlation" >
   <i type="string" name="GGA">--</i>
   <i type="int" name="VOSKOWN">     0</i>
   <i type="logical" name="LHFCALC"> F  </i>
   <i type="string" name="PRECFOCK"></i>
   <i type="logical" name="LSYMGRAD"> F  </i>
   <i type="logical" name="LHFONE"> F  </i>
   <i type="logical" name="LRHFCALC"> F  </i>
   <i type="logical" name="LTHOMAS"> F  </i>
   <i type="logical" name="LMODELHF"> F  </i>
   <i name="ENCUT4O">     -1.00000000</i>
   <i type="int" name="EXXOEP">     0</i>
   <i type="int" name="FOURORBIT">     0</i>
   <i name="AEXX">      0.00000000</i>
   <i name="HFALPHA">      0.00000000</i>
   <i name="MCALPHA">      0.00000000</i>
   <i name="ALDAX">      1.00000000</i>
   <i name="AGGAX">      1.00000000</i>
   <i name="ALDAC">      1.00000000</i>
   <i name="AGGAC">      1.00000000</i>
   <i type="int" name="NKREDX">     1</i>
   <i type="int" name="NKREDY">     1</i>
   <i type="int" name="NKREDZ">     1</i>
   <i type="logical" name="SHIFTRED"> F  </i>
   <i type="logical" name="ODDONLY"> F  </i>
   <i type="logical" name="EVENONLY"> F  </i>
   <i type="int" name="LMAXFOCK">     0</i>
   <i type="int" name="NMAXFOCKAE">     0</i>
   <i type="logical" name="LFOCKAEDFT"> F  </i>
   <i name="HFSCREEN">      0.00000000</i>
   <i name="HFSCREENC">      0.00000000</i>
   <i type="int" name="NBANDSGWLOW">     0</i>
  </separator>
  <separator name="vdW DFT" >
   <i type="logical" name="LUSE_VDW"> F  </i>
   <i name="Zab_VDW">     -0.84910000</i>
   <i name="PARAM1">      0.12340000</i>
   <i name="PARAM2">      1.00000000</i>
   <i name="PARAM3">      0.00000000</i>
  </separator>
  <separator name="model GW" >
   <i type="int" name="MODEL_GW">     0</i>
   <i name="MODEL_EPS0">      6.53768447</i>
   <i name="MODEL_ALPHA">      1.00000000</i>
  </separator>
  <separator name="linear response parameters" >
   <i type="logical" name="LEPSILON"> F  </i>
   <i type="logical" name="LRPA"> F  </i>
   <i type="logical" name="LNABLA"> F  </i>
   <i type="logical" name="LVEL"> F  </i>
   <i type="int" name="KINTER">     0</i>
   <i name="CSHIFT">      0.10000000</i>
   <i name="OMEGAMAX">     -1.00000000</i>
   <i name="DEG_THRESHOLD">      0.00200000</i>
   <i name="RTIME">     -0.10000000</i>
   <i name="WPLASMAI">      0.00000000</i>
   <v name="DFIELD">      0.00000000      0.00000000      0.00000000</v>
   <v name="WPLASMA">      0.00000000      0.00000000      0.00000000      0.00000000      0.00000000      0.00000000      0.00000000      0.00000000      0.00000000</v>
  </separator>
  <separator name="orbital magnetization" >
   <i type="logical" name="NUCIND"> F  </i>
   <v name="MAGPOS">      0.00000000      0.00000000      0.00000000</v>
   <i type="logical" name="LNICSALL"> T  </i>
   <i type="logical" name="ORBITALMAG"> F  </i>
   <i type="logical" name="LMAGBLOCH"> F  </i>
   <i type="logical" name="LCHIMAG"> F  </i>
   <i type="logical" name="LGAUGE"> T  </i>
   <i type="int" name="MAGATOM">     0</i>
   <v name="MAGDIPOL">      0.00000000      0.00000000      0.00000000</v>
   <v name="AVECCONST">      0.00000000      0.00000000      0.00000000</v>
  </separator>
  <separator name="response functions" >
   <i type="logical" name="LADDER"> F  </i>
   <i type="logical" name="LRPAFORCE"> F  </i>
   <i type="logical" name="LFXC"> F  </i>
   <i type="logical" name="LHARTREE"> T  </i>
   <i type="int" name="IBSE">     0</i>
   <v type="int" name="KPOINT">    -1     0     0     0</v>
   <i type="logical" name="LTCTE"> F  </i>
   <i type="logical" name="LTETE"> F  </i>
   <i type="logical" name="LTRIPLET"> F  </i>
   <i type="logical" name="LFXCEPS"> F  </i>
   <i type="logical" name="LFXHEG"> F  </i>
   <i type="int" name="NATURALO">     2</i>
   <i type="logical" name="L2ORDER"> F  </i>
   <i type="logical" name="LMP2LT"> F  </i>
   <i type="logical" name="LUSEW"> F  </i>
   <i name="ENCUTGW">     -2.00000000</i>
   <i name="ENCUTGWSOFT">     -2.00000000</i>
   <i name="ENCUTLF">     -1.00000000</i>
   <i type="int" name="LMAXMP2">    -1</i>
   <i name="SCISSOR">      0.00000000</i>
   <i type="int" name="NOMEGA">     0</i>
   <i type="int" name="NOMEGAR">     0</i>
   <i type="int" name="NBANDSGW">    -1</i>
   <i type="int" name="NBANDSO">    -1</i>
   <i type="int" name="NBANDSV">    -1</i>
   <i type="int" name="NELM">   120</i>
   <i type="int" name="NELMHF">     1</i>
   <i type="int" name="DIM">     3</i>
   <i type="int" name="ANTIRES">     0</i>
   <i name="OMEGAMAX">    -30.00000000</i>
   <i name="OMEGAMIN">    -30.00000000</i>
   <i name="OMEGATL">   -200.00000000</i>
   <i type="int" name="OMEGAGRID">   140</i>
   <i name="CSHIFT">     -0.10000000</i>
   <i type="logical" name="SELFENERGY"> F  </i>
   <i type="logical" name="LSPECTRAL"> F  </i>
   <i type="logical" name="LSPECTRALGW"> F  </i>
   <i type="logical" name="LSINGLES"> F  </i>
   <i type="logical" name="LFERMIGW"> F  </i>
   <i type="logical" name="ODDONLYGW"> F  </i>
   <i type="logical" name="EVENONLYGW"> F  </i>
   <i type="int" name="NKREDLFX">     1</i>
   <i type="int" name="NKREDLFY">     1</i>
   <i type="int" name="NKREDLFZ">     1</i>
   <i type="int" name="MAXMEM">  2800</i>
   <i type="int" name="TELESCOPE">     0</i>
   <i type="int" name="TAUPAR">     1</i>
   <i type="int" name="OMEGAPAR">    -1</i>
   <i name="LAMBDA">      1.00000000</i>
  </separator>
  <separator name="External order field" >
   <i name="OFIELD_KAPPA">      0.00000000</i>
   <v name="OFIELD_K">      0.00000000      0.00000000      0.00000000</v>
   <i name="OFIELD_Q6_NEAR">      0.00000000</i>
   <i name="OFIELD_Q6_FAR">      0.00000000</i>
   <i name="OFIELD_A">      0.00000000</i>
  </separator>
 </parameters>
 <atominfo>
  <atoms>      12 </atoms>
  <types>       2 </types>
  <array name="atoms" >
   <dimension dim="1">ion</dimension>
   <field type="string">element</field>
   <field type="int">atomtype</field>
   <set>
    <rc><c>Hf</c><c>   1</c></rc>
    <rc><c>Hf</c><c>   1</c></rc>
    <rc><c>Hf</c><c>   1</c></rc>
    <rc><c>Hf</c><c>   1</c></rc>
    <rc><c>O </c><c>   2</c></rc>
    <rc><c>O </c><c>   2</c></rc>
    <rc><c>O </c><c>   2</c></rc>
    <rc><c>O </c><c>   2</c></rc>
    <rc><c>O </c><c>   2</c></rc>
    <rc><c>O </c><c>   2</c></rc>
    <rc><c>O </c><c>   2</c></rc>
    <rc><c>O </c><c>   2</c></rc>
   </set>
  </array>
  <array name="atomtypes" >
   <dimension dim="1">type</dimension>
   <field type="int">atomspertype</field>
   <field type="string">element</field>
   <field>mass</field>
   <field>valence</field>
   <field type="string">pseudopotential</field>
   <set>
    <rc><c>   4</c><c>Hf</c><c>    178.49000000</c><c>      4.00000000</c><c>  PAW Hf 21Jan2003                      </c></rc>
    <rc><c>   8</c><c>O </c><c>     16.00000000</c><c>      6.00000000</c><c>  PAW O 22Mar2012                       </c></rc>
   </set>
  </array>
 </atominfo>
 <structure name="initialpos" >
  <crystal>
   <varray name="basis" >
    <v>       5.07556800       0.00000000       0.00000000 </v>
    <v>       0.00000000       5.07556800       0.00000000 </v>
    <v>       0.00000000       0.00000000       5.07556800 </v>
   </varray>
   <i name="volume">    130.75368937 </i>
   <varray name="rec_basis" >
    <v>       0.19702228       0.00000000       0.00000000 </v>
    <v>       0.00000000       0.19702228       0.00000000 </v>
    <v>       0.00000000       0.00000000       0.19702228 </v>
   </varray>
  </crystal>
  <varray name="positions" >
   <v>       0.00000000       0.00000000       0.00000000 </v>
   <v>       0.00000000       0.50000000       0.50000000 </v>
   <v>       0.50000000       0.00000000       0.50000000 </v>
   <v>       0.50000000       0.50000000       0.00000000 </v>
   <v>       0.25000000       0.30457759       0.73666153 </v>
   <v>       0.25000000       0.80457759       0.76333847 </v>
   <v>       0.25000000       0.80457759       0.26333847 </v>
   <v>       0.25000000       0.30457759       0.23666153 </v>
   <v>       0.75000000       0.19542241       0.36953478 </v>
   <v>       0.75000000       0.69542241       0.13046522 </v>
   <v>       0.75000000       0.69542241       0.63046522 </v>
   <v>       0.75000000       0.19542241       0.86953478 </v>
  </varray>
 </structure>
 <calculation>
  <scstep>
   <time name="diag">    0.11    0.11</time>
   <time name="diis">    0.11    0.11</time>
   <time name="orth">    0.01    0.01</time>
   <time name="total">    0.24    0.24</time>
   <energy>
    <i name="alphaZ">    238.81820658 </i>
    <i name="ewald">  -3145.54243441 </i>
    <i name="hartreedc">   -890.77981228 </i>
    <i name="XCdc">     12.80432164 </i>
    <i name="pawpsdc">   3254.09161188 </i>
    <i name="pawaedc">  -3039.98654124 </i>
    <i name="eentropy">     -0.00091404 </i>
    <i name="bandstr">    619.23075577 </i>
    <i name="atom">   3759.73604014 </i>
    <i name="e_fr_energy">    808.37123405 </i>
    <i name="e_wo_entrp">    808.37214809 </i>
    <i name="e_0_energy">    808.37169107 </i>
   </energy>
  </scstep>
  <scstep>
   <time name="diag">    0.10    0.10</time>
   <time name="diis">    0.11    0.11</time>
   <time name="orth">    0.01    0.01</time>
   <time name="total">    0.22    0.22</time>
   <energy>
    <i name="e_fr_energy">    173.84901459 </i>
    <i name="e_wo_entrp">    173.85098715 </i>
    <i name="e_0_energy">    173.85000087 </i>
   </energy>
  </scstep>
  <scstep>
   <time name="diag">    0.10    0.10</time>
   <time name="diis">    0.11    0.11</time>
   <time name="orth">    0.01    0.01</time>
   <time name="total">    0.22    0.22</time>
   <energy>
    <i name="e_fr_energy">    -36.86840561 </i>
    <i name="e_wo_entrp">    -36.86160650 </i>
    <i name="e_0_energy">    -36.86500605 </i>
   </energy>
  </scstep>
  <scstep>
   <time name="diag">    0.10    0.10</time>
   <time name="diis">    0.11    0.11</time>
   <time name="orth">    0.01    0.01</time>
   <time name="total">    0.22    0.22</time>
   <energy>
    <i name="e_fr_energy">   -116.21827921 </i>
    <i name="e_wo_entrp">   -116.21827921 </i>
    <i name="e_0_energy">   -116.21827921 </i>
   </energy>
  </scstep>
  <scstep>
   <time name="diag">    0.10    0.10</time>
   <time name="diis">    0.11    0.11</time>
   <time name="orth">    0.01    0.01</time>
   <time name="total">    0.22    0.22</time>
   <energy>
    <i name="e_fr_energy">   -139.89464552 </i>
    <i name="e_wo_entrp">   -139.89464552 </i>
    <i name="e_0_energy">   -139.89464552 </i>
   </energy>
  </scstep>
  <scstep>
   <time name="diag">    0.10    0.10</time>
   <time name="diis">    0.11    0.11</time>
   <time name="orth">    0.01    0.01</time>
   <time name="total">    0.22    0.22</time>
   <energy>
    <i name="e_fr_energy">   -146.89097169 </i>
    <i name="e_wo_entrp">   -146.89097169 </i>
    <i name="e_0_energy">   -146.89097169 </i>
   </energy>
  </scstep>
  <scstep>
   <time name="diag">    0.10    0.10</time>
   <time name="diis">    0.12    0.12</time>
   <time name="orth">    0.01    0.01</time>
   <time name="total">    0.23    0.23</time>
   <energy>
    <i name="e_fr_energy">   -149.06501718 </i>
    <i name="e_wo_entrp">   -149.06501718 </i>
    <i name="e_0_energy">   -149.06501718 </i>
   </energy>
  </scstep>
  <scstep>
   <time name="diag">    0.10    0.10</time>
   <time name="diis">    0.11    0.11</time>
   <time name="orth">    0.01    0.01</time>
   <time name="total">    0.21    0.22</time>
   <energy>
    <i name="e_fr_energy">   -149.78312110 </i>
    <i name="e_wo_entrp">   -149.78312110 </i>
    <i name="e_0_energy">   -149.78312110 </i>
   </energy>
  </scstep>
  <scstep>
   <time name="diag">    0.10    0.10</time>
   <time name="diis">    0.19    0.19</time>
   <time name="orth">    0.01    0.01</time>
   <time name="total">    0.30    0.30</time>
   <energy>
    <i name="e_fr_energy">   -150.10564569 </i>
    <i name="e_wo_entrp">   -150.10564569 </i>
    <i name="e_0_energy">   -150.10564569 </i>
   </energy>
  </scstep>
  <scstep>
   <time name="diag">    0.10    0.10</time>
   <time name="diis">    0.20    0.20</time>
   <time name="orth">    0.01    0.01</time>
   <time name="total">    0.31    0.31</time>
   <energy>
    <i name="e_fr_energy">   -150.15316702 </i>
    <i name="e_wo_entrp">   -150.15316702 </i>
    <i name="e_0_energy">   -150.15316702 </i>
   </energy>
  </scstep>
  <scstep>
   <time name="diag">    0.10    0.10</time>
   <time name="diis">    0.18    0.18</time>
   <time name="orth">    0.01    0.01</time>
   <time name="total">    0.29    0.29</time>
   <energy>
    <i name="e_fr_energy">   -150.15474131 </i>
    <i name="e_wo_entrp">   -150.15474131 </i>
    <i name="e_0_energy">   -150.15474131 </i>
   </energy>
  </scstep>
  <scstep>
   <time name="diag">    0.10    0.10</time>
   <time name="diis">    0.17    0.17</time>
   <time name="orth">    0.01    0.01</time>
   <time name="total">    0.30    0.30</time>
   <energy>
    <i name="e_fr_energy">   -150.15507494 </i>
    <i name="e_wo_entrp">   -150.15507494 </i>
    <i name="e_0_energy">   -150.15507494 </i>
   </energy>
  </scstep>
  <scstep>
   <time name="diag">    0.10    0.10</time>
   <time name="diis">    0.19    0.19</time>
   <time name="orth">    0.01    0.01</time>
   <time name="total">    0.32    0.32</time>
   <energy>
    <i name="e_fr_energy">   -129.07293563 </i>
    <i name="e_wo_entrp">   -129.07293563 </i>
    <i name="e_0_energy">   -129.07293563 </i>
   </energy>
  </scstep>
  <scstep>
   <time name="diag">    0.10    0.10</time>
   <time name="diis">    0.20    0.20</time>
   <time name="orth">    0.01    0.01</time>
   <time name="total">    0.33    0.33</time>
   <energy>
    <i name="e_fr_energy">   -128.17920495 </i>
    <i name="e_wo_entrp">   -128.17920495 </i>
    <i name="e_0_energy">   -128.17920495 </i>
   </energy>
  </scstep>
  <scstep>
   <time name="diag">    0.10    0.10</time>
   <time name="diis">    0.19    0.19</time>
   <time name="orth">    0.01    0.01</time>
   <time name="total">    0.33    0.33</time>
   <energy>
    <i name="e_fr_energy">   -127.89639419 </i>
    <i name="e_wo_entrp">   -127.89639419 </i>
    <i name="e_0_energy">   -127.89639419 </i>
   </energy>
  </scstep>
  <scstep>
   <time name="diag">    0.10    0.10</time>
   <time name="diis">    0.19    0.19</time>
   <time name="orth">    0.01    0.01</time>
   <time name="total">    0.33    0.33</time>
   <energy>
    <i name="e_fr_energy">   -127.87458452 </i>
    <i name="e_wo_entrp">   -127.87458452 </i>
    <i name="e_0_energy">   -127.87458452 </i>
   </energy>
  </scstep>
  <scstep>
   <time name="diag">    0.10    0.10</time>
   <time name="diis">    0.20    0.20</time>
   <time name="orth">    0.01    0.01</time>
   <time name="total">    0.33    0.33</time>
   <energy>
    <i name="e_fr_energy">   -127.87698997 </i>
    <i name="e_wo_entrp">   -127.87698997 </i>
    <i name="e_0_energy">   -127.87698997 </i>
   </energy>
  </scstep>
  <scstep>
   <time name="diag">    0.10    0.10</time>
   <time name="diis">    0.19    0.19</time>
   <time name="orth">    0.01    0.01</time>
   <time name="total">    0.33    0.33</time>
   <energy>
    <i name="e_fr_energy">   -127.87416976 </i>
    <i name="e_wo_entrp">   -127.87416976 </i>
    <i name="e_0_energy">   -127.87416976 </i>
   </energy>
  </scstep>
  <scstep>
   <time name="diag">    0.10    0.10</time>
   <time name="diis">    0.21    0.21</time>
   <time name="orth">    0.01    0.01</time>
   <time name="total">    0.34    0.34</time>
   <energy>
    <i name="e_fr_energy">   -127.87426244 </i>
    <i name="e_wo_entrp">   -127.87426244 </i>
    <i name="e_0_energy">   -127.87426244 </i>
   </energy>
  </scstep>
  <scstep>
   <time name="diag">    0.10    0.10</time>
   <time name="diis">    0.19    0.19</time>
   <time name="orth">    0.01    0.01</time>
   <time name="total">    0.32    0.32</time>
   <energy>
    <i name="e_fr_energy">   -127.87415500 </i>
    <i name="e_wo_entrp">   -127.87415500 </i>
    <i name="e_0_energy">   -127.87415500 </i>
   </energy>
  </scstep>
  <scstep>
   <time name="diag">    0.10    0.10</time>
   <time name="diis">    0.13    0.13</time>
   <time name="orth">    0.01    0.01</time>
   <time name="total">    0.24    0.24</time>
   <energy>
    <i name="alphaZ">    238.81820658 </i>
    <i name="ewald">  -3145.54243441 </i>
    <i name="hartreedc">  -1062.00608238 </i>
    <i name="XCdc">     28.27433660 </i>
    <i name="pawpsdc">   8916.93307466 </i>
    <i name="pawaedc">  -8708.50602386 </i>
    <i name="eentropy">     -0.00000000 </i>
    <i name="bandstr">   -155.58126647 </i>
    <i name="atom">   3759.73604014 </i>
    <i name="e_fr_energy">   -127.87414914 </i>
    <i name="e_wo_entrp">   -127.87414914 </i>
    <i name="e_0_energy">   -127.87414914 </i>
   </energy>
  </scstep>
  <structure>
   <crystal>
    <varray name="basis" >
     <v>       5.07556800       0.00000000       0.00000000 </v>
     <v>       0.00000000       5.07556800       0.00000000 </v>
     <v>       0.00000000       0.00000000       5.07556800 </v>
    </varray>
    <i name="volume">    130.75368937 </i>
    <varray name="rec_basis" >
     <v>       0.19702228       0.00000000       0.00000000 </v>
     <v>       0.00000000       0.19702228       0.00000000 </v>
     <v>       0.00000000       0.00000000       0.19702228 </v>
    </varray>
   </crystal>
   <varray name="positions" >
    <v>       0.00000000       0.00000000       0.00000000 </v>
    <v>       0.00000000       0.50000000       0.50000000 </v>
    <v>       0.50000000       0.00000000       0.50000000 </v>
    <v>       0.50000000       0.50000000       0.00000000 </v>
    <v>       0.25000000       0.30457759       0.73666153 </v>
    <v>       0.25000000       0.80457759       0.76333847 </v>
    <v>       0.25000000       0.80457759       0.26333847 </v>
    <v>       0.25000000       0.30457759       0.23666153 </v>
    <v>       0.75000000       0.19542241       0.36953478 </v>
    <v>       0.75000000       0.69542241       0.13046522 </v>
    <v>       0.75000000       0.69542241       0.63046522 </v>
    <v>       0.75000000       0.19542241       0.86953478 </v>
   </varray>
  </structure>
  <varray name="forces" >
   <v>       5.92131462      -2.25859251       2.73393681 </v>
   <v>       5.92131462      -2.25859251      -2.73393681 </v>
   <v>      -5.92131462      -2.25859251       2.73393681 </v>
   <v>      -5.92131462      -2.25859251      -2.73393681 </v>
   <v>      -0.02919478      -1.63650048      -0.86513291 </v>
   <v>      -0.02919478      -1.63650048       0.86513291 </v>
   <v>       0.02919478      -1.63650048       0.86513291 </v>
   <v>       0.02919478      -1.63650048      -0.86513291 </v>
   <v>       5.34904173       3.89509299      -2.95161541 </v>
   <v>       5.34904173       3.89509299       2.95161541 </v>
   <v>      -5.34904173       3.89509299       2.95161541 </v>
   <v>      -5.34904173       3.89509299      -2.95161541 </v>
  </varray>
  <varray name="stress" >
   <v>     200.71680860       0.00000000       0.00000000 </v>
   <v>       0.00000000     117.97041243       0.00000000 </v>
   <v>       0.00000000       0.00000000     179.47933521 </v>
  </varray>
  <energy>
   <i name="e_fr_energy">   -127.87414914 </i>
   <i name="e_wo_entrp">   -127.87414914 </i>
   <i name="e_0_energy">     -0.00000000 </i>
  </energy>
  <time name="totalsc">    6.20    6.23</time>
 </calculation>
 <calculation>
  <scstep>
   <time name="diag">    0.10    0.10</time>
   <time name="diis">    0.21    0.21</time>
   <time name="orth">    0.01    0.01</time>
   <time name="total">    0.34    0.34</time>
   <energy>
    <i name="alphaZ">    238.81820658 </i>
    <i name="ewald">  -3143.36152143 </i>
    <i name="hartreedc">  -1063.54259243 </i>
    <i name="XCdc">     27.88660735 </i>
    <i name="pawpsdc">   8916.41219992 </i>
    <i name="pawaedc">  -8707.98481275 </i>
    <i name="eentropy">     -0.00000000 </i>
    <i name="bandstr">   -157.74756506 </i>
    <i name="atom">   3759.73604014 </i>
    <i name="e_fr_energy">   -129.78343766 </i>
    <i name="e_wo_entrp">   -129.78343766 </i>
    <i name="e_0_energy">   -129.78343766 </i>
   </energy>
  </scstep>
  <scstep>
   <time name="diag">    0.10    0.10</time>
   <time name="diis">    0.19    0.19</time>
   <time name="orth">    0.01    0.01</time>
   <time name="total">    0.32    0.32</time>
   <energy>
    <i name="e_fr_energy">   -132.84945425 </i>
    <i name="e_wo_entrp">   -132.84945425 </i>
    <i name="e_0_energy">   -132.84945425 </i>
   </energy>
  </scstep>
  <scstep>
   <time name="diag">    0.10    0.10</time>
   <time name="diis">    0.19    0.19</time>
   <time name="orth">    0.01    0.01</time>
   <time name="total">    0.32    0.32</time>
   <energy>
    <i name="e_fr_energy">   -130.68635787 </i>
    <i name="e_wo_entrp">   -130.68635787 </i>
    <i name="e_0_energy">   -130.68635787 </i>
   </energy>
  </scstep>
  <scstep>
   <time name="diag">    0.10    0.10</time>
   <time name="diis">    0.19    0.19</time>
   <time name="orth">    0.01    0.01</time>
   <time name="total">    0.32    0.32</time>
   <energy>
    <i name="e_fr_energy">   -130.55717835 </i>
    <i name="e_wo_entrp">   -130.55717835 </i>
    <i name="e_0_energy">   -130.55717835 </i>
   </energy>
  </scstep>
  <scstep>
   <time name="diag">    0.10    0.10</time>
   <time name="diis">    0.19    0.19</time>
   <time name="orth">    0.01    0.01</time>
   <time name="total">    0.32    0.33</time>
   <energy>
    <i name="e_fr_energy">   -129.61846199 </i>
    <i name="e_wo_entrp">   -129.61846199 </i>
    <i name="e_0_energy">   -129.61846199 </i>
   </energy>
  </scstep>
  <scstep>
   <time name="diag">    0.10    0.10</time>
   <time name="diis">    0.19    0.19</time>
   <time name="orth">    0.01    0.01</time>
   <time name="total">    0.33    0.33</time>
   <energy>
    <i name="e_fr_energy">   -129.64386022 </i>
    <i name="e_wo_entrp">   -129.64386022 </i>
    <i name="e_0_energy">   -129.64386022 </i>
   </energy>
  </scstep>
  <scstep>
   <time name="diag">    0.10    0.10</time>
   <time name="diis">    0.19    0.19</time>
   <time name="orth">    0.01    0.01</time>
   <time name="total">    0.33    0.33</time>
   <energy>
    <i name="e_fr_energy">   -129.61505213 </i>
    <i name="e_wo_entrp">   -129.61505213 </i>
    <i name="e_0_energy">   -129.61505213 </i>
   </energy>
  </scstep>
  <scstep>
   <time name="diag">    0.10    0.10</time>
   <time name="diis">    0.21    0.21</time>
   <time name="orth">    0.01    0.01</time>
   <time name="total">    0.34    0.34</time>
   <energy>
    <i name="e_fr_energy">   -129.61552103 </i>
    <i name="e_wo_entrp">   -129.61552103 </i>
    <i name="e_0_energy">   -129.61552103 </i>
   </energy>
  </scstep>
  <scstep>
   <time name="diag">    0.10    0.10</time>
   <time name="diis">    0.19    0.19</time>
   <time name="orth">    0.01    0.01</time>
   <time name="total">    0.32    0.32</time>
   <energy>
    <i name="e_fr_energy">   -129.61534338 </i>
    <i name="e_wo_entrp">   -129.61534338 </i>
    <i name="e_0_energy">   -129.61534338 </i>
   </energy>
  </scstep>
  <scstep>
   <time name="diag">    0.10    0.10</time>
   <time name="diis">    0.15    0.15</time>
   <time name="orth">    0.01    0.01</time>
   <time name="total">    0.26    0.26</time>
   <energy>
    <i name="alphaZ">    238.81820658 </i>
    <i name="ewald">  -3143.36152143 </i>
    <i name="hartreedc">  -1064.72212615 </i>
    <i name="XCdc">     28.23989393 </i>
    <i name="pawpsdc">   8180.25302836 </i>
    <i name="pawaedc">  -7971.18265175 </i>
    <i name="eentropy">     -0.00000000 </i>
    <i name="bandstr">   -157.39621646 </i>
    <i name="atom">   3759.73604014 </i>
    <i name="e_fr_energy">   -129.61534676 </i>
    <i name="e_wo_entrp">   -129.61534676 </i>
    <i name="e_0_energy">   -129.61534676 </i>
   </energy>
  </scstep>
  <structure>
   <crystal>
    <varray name="basis" >
     <v>       5.07556800       0.00000000       0.00000000 </v>
     <v>       0.00000000       5.07556800       0.00000000 </v>
     <v>       0.00000000       0.00000000       5.07556800 </v>
    </varray>
    <i name="volume">    130.75368937 </i>
    <varray name="rec_basis" >
     <v>       0.19702228       0.00000000       0.00000000 </v>
     <v>       0.00000000       0.19702228       0.00000000 </v>
     <v>       0.00000000       0.00000000       0.19702228 </v>
    </varray>
   </crystal>
   <varray name="positions" >
    <v>       0.03376882      -0.01288059       0.01559144 </v>
    <v>       0.03376882       0.48711941       0.48440856 </v>
    <v>       0.46623118      -0.01288059       0.51559144 </v>
    <v>       0.46623118       0.48711941      -0.01559144 </v>
    <v>       0.24983350       0.29524475       0.73172774 </v>
    <v>       0.24983350       0.79524475       0.76827226 </v>
    <v>       0.25016650       0.79524475       0.26827226 </v>
    <v>       0.25016650       0.29524475       0.23172774 </v>
    <v>       0.78050519       0.21763584       0.35270193 </v>
    <v>       0.78050519       0.71763584       0.14729807 </v>
    <v>       0.71949481       0.71763584       0.64729807 </v>
    <v>       0.71949481       0.21763584       0.85270193 </v>
   </varray>
  </structure>
  <varray name="forces" >
   <v>      -6.21784304       2.92931008       0.17945139 </v>
   <v>      -6.21784304       2.92931008      -0.17945139 </v>
   <v>       6.21784304       2.92931008       0.17945139 </v>
   <v>       6.21784304       2.92931008      -0.17945139 </v>
   <v>      -0.66935651      -2.50678435      -0.51426698 </v>
   <v>      -0.66935651      -2.50678435       0.51426698 </v>
   <v>       0.66935651      -2.50678435       0.51426698 </v>
   <v>       0.66935651      -2.50678435      -0.51426698 </v>
   <v>      -0.10156526      -0.42252573       0.15180810 </v>
   <v>      -0.10156526      -0.42252573      -0.15180810 </v>
   <v>       0.10156526      -0.42252573      -0.15180810 </v>
   <v>       0.10156526      -0.42252573       0.15180810 </v>
  </varray>
  <varray name="stress" >
   <v>     -13.75919761       0.00000000       0.00000000 </v>
   <v>       0.00000000      21.12748696       0.00000000 </v>
   <v>       0.00000000       0.00000000     216.94351253 </v>
  </varray>
  <energy>
   <i name="e_fr_energy">   -129.61534676 </i>
   <i name="e_wo_entrp">   -129.61534676 </i>
   <i name="e_0_energy">     -0.00000000 </i>
  </energy>
  <time name="totalsc">    3.59    3.61</time>
 </calculation>
 <calculation>
  <scstep>
   <time name="diag">    0.10    0.10</time>
   <time name="diis">    0.19    0.19</time>
   <time name="orth">    0.01    0.01</time>
   <time name="total">    0.32    0.33</time>
   <energy>
    <i name="alphaZ">    238.81820658 </i>
    <i name="ewald">  -3155.01397880 </i>
    <i name="hartreedc">  -1056.12821169 </i>
    <i name="XCdc">     28.20448621 </i>
    <i name="pawpsdc">   8180.27501108 </i>
    <i name="pawaedc">  -7971.20416303 </i>
    <i name="eentropy">     -0.00000000 </i>
    <i name="bandstr">   -156.75346246 </i>
    <i name="atom">   3759.73604014 </i>
    <i name="e_fr_energy">   -132.06607197 </i>
    <i name="e_wo_entrp">   -132.06607197 </i>
    <i name="e_0_energy">   -132.06607197 </i>
   </energy>
  </scstep>
  <scstep>
   <time name="diag">    0.10    0.10</time>
   <time name="diis">    0.19    0.19</time>
   <time name="orth">    0.01    0.01</time>
   <time name="total">    0.32    0.32</time>
   <energy>
    <i name="e_fr_energy">   -130.97085688 </i>
    <i name="e_wo_entrp">   -130.97085688 </i>
    <i name="e_0_energy">   -130.97085688 </i>
   </energy>
  </scstep>
  <scstep>
   <time name="diag">    0.10    0.10</time>
   <time name="diis">    0.20    0.20</time>
   <time name="orth">    0.01    0.01</time>
   <time name="total">    0.33    0.33</time>
   <energy>
    <i name="e_fr_energy">   -130.85631117 </i>
    <i name="e_wo_entrp">   -130.85631117 </i>
    <i name="e_0_energy">   -130.85631117 </i>
   </energy>
  </scstep>
  <scstep>
   <time name="diag">    0.10    0.10</time>
   <time name="diis">    0.19    0.19</time>
   <time name="orth">    0.01    0.01</time>
   <time name="total">    0.33    0.33</time>
   <energy>
    <i name="e_fr_energy">   -130.82127617 </i>
    <i name="e_wo_entrp">   -130.82127617 </i>
    <i name="e_0_energy">   -130.82127617 </i>
   </energy>
  </scstep>
  <scstep>
   <time name="diag">    0.10    0.10</time>
   <time name="diis">    0.19    0.19</time>
   <time name="orth">    0.01    0.01</time>
   <time name="total">    0.32    0.33</time>
   <energy>
    <i name="e_fr_energy">   -130.79489543 </i>
    <i name="e_wo_entrp">   -130.79489543 </i>
    <i name="e_0_energy">   -130.79489543 </i>
   </energy>
  </scstep>
  <scstep>
   <time name="diag">    0.10    0.10</time>
   <time name="diis">    0.19    0.19</time>
   <time name="orth">    0.01    0.01</time>
   <time name="total">    0.32    0.32</time>
   <energy>
    <i name="e_fr_energy">   -130.79466048 </i>
    <i name="e_wo_entrp">   -130.79466048 </i>
    <i name="e_0_energy">   -130.79466048 </i>
   </energy>
  </scstep>
  <scstep>
   <time name="diag">    0.10    0.10</time>
   <time name="diis">    0.19    0.19</time>
   <time name="orth">    0.01    0.01</time>
   <time name="total">    0.32    0.32</time>
   <energy>
    <i name="e_fr_energy">   -130.79451455 </i>
    <i name="e_wo_entrp">   -130.79451455 </i>
    <i name="e_0_energy">   -130.79451455 </i>
   </energy>
  </scstep>
  <scstep>
   <time name="diag">    0.10    0.10</time>
   <time name="diis">    0.19    0.19</time>
   <time name="orth">    0.01    0.01</time>
   <time name="total">    0.32    0.32</time>
   <energy>
    <i name="e_fr_energy">   -130.79445769 </i>
    <i name="e_wo_entrp">   -130.79445769 </i>
    <i name="e_0_energy">   -130.79445769 </i>
   </energy>
  </scstep>
  <scstep>
   <time name="diag">    0.10    0.10</time>
   <time name="diis">    0.17    0.17</time>
   <time name="orth">    0.01    0.01</time>
   <time name="total">    0.30    0.30</time>
   <energy>
    <i name="e_fr_energy">   -130.79443899 </i>
    <i name="e_wo_entrp">   -130.79443899 </i>
    <i name="e_0_energy">   -130.79443899 </i>
   </energy>
  </scstep>
  <scstep>
   <time name="diag">    0.10    0.10</time>
   <time name="diis">    0.13    0.13</time>
   <time name="orth">    0.01    0.01</time>
   <time name="total">    0.24    0.24</time>
   <energy>
    <i name="alphaZ">    238.81820658 </i>
    <i name="ewald">  -3155.01397880 </i>
    <i name="hartreedc">  -1058.32342868 </i>
    <i name="XCdc">     28.32587118 </i>
    <i name="pawpsdc">   7989.80137935 </i>
    <i name="pawaedc">  -7780.68767528 </i>
    <i name="eentropy">     -0.00000000 </i>
    <i name="bandstr">   -153.45085502 </i>
    <i name="atom">   3759.73604014 </i>
    <i name="e_fr_energy">   -130.79444051 </i>
    <i name="e_wo_entrp">   -130.79444051 </i>
    <i name="e_0_energy">   -130.79444051 </i>
   </energy>
  </scstep>
  <structure>
   <crystal>
    <varray name="basis" >
     <v>       5.07556800       0.00000000       0.00000000 </v>
     <v>       0.00000000       5.07556800       0.00000000 </v>
     <v>       0.00000000       0.00000000       5.07556800 </v>
    </varray>
    <i name="volume">    130.75368937 </i>
    <varray name="rec_basis" >
     <v>       0.19702228       0.00000000       0.00000000 </v>
     <v>       0.00000000       0.19702228       0.00000000 </v>
     <v>       0.00000000       0.00000000       0.19702228 </v>
    </varray>
   </crystal>
   <varray name="positions" >
    <v>       0.01855676      -0.00707819       0.00856786 </v>
    <v>       0.01855676       0.49292181       0.49143214 </v>
    <v>       0.48144324      -0.00707819       0.50856786 </v>
    <v>       0.48144324       0.49292181      -0.00856786 </v>
    <v>       0.24990851       0.29944897       0.73395030 </v>
    <v>       0.24990851       0.79944897       0.76604970 </v>
    <v>       0.25009149       0.79944897       0.26604970 </v>
    <v>       0.25009149       0.29944897       0.23395030 </v>
    <v>       0.76676332       0.20762921       0.36028473 </v>
    <v>       0.76676332       0.70762921       0.13971527 </v>
    <v>       0.73323668       0.70762921       0.63971527 </v>
    <v>       0.73323668       0.20762921       0.86028473 </v>
   </varray>
  </structure>
  <varray name="forces" >
   <v>      -2.11098149       1.42692717       0.70897780 </v>
   <v>      -2.11098149       1.42692717      -0.70897780 </v>
   <v>       2.11098149       1.42692717       0.70897780 </v>
   <v>       2.11098149       1.42692717      -0.70897780 </v>
   <v>      -0.14819618      -2.01360600      -0.68897421 </v>
   <v>      -0.14819618      -2.01360600       0.68897421 </v>
   <v>       0.14819618      -2.01360600       0.68897421 </v>
   <v>       0.14819618      -2.01360600      -0.68897421 </v>
   <v>       1.14899544       0.58667883      -0.62326569 </v>
   <v>       1.14899544       0.58667883       0.62326569 </v>
   <v>      -1.14899544       0.58667883       0.62326569 </v>
   <v>      -1.14899544       0.58667883      -0.62326569 </v>
  </varray>
  <varray name="stress" >
   <v>       5.42907985       0.00000000       0.00000000 </v>
   <v>       0.00000000      -3.74903664       0.00000000 </v>
   <v>       0.00000000       0.00000000     156.67406407 </v>
  </varray>
  <energy>
   <i name="e_fr_energy">   -130.79444051 </i>
   <i name="e_wo_entrp">   -130.79444051 </i>
   <i name="e_0_energy">     -0.00000000 </i>
  </energy>
  <time name="totalsc">    3.52    3.53</time>
 </calculation>
 <calculation>
  <scstep>
   <time name="diag">    0.10    0.10</time>
   <time name="diis">    0.19    0.19</time>
   <time name="orth">    0.01    0.01</time>
   <time name="total">    0.33    0.33</time>
   <energy>
    <i name="alphaZ">    238.81820658 </i>
    <i name="ewald">  -3157.76106237 </i>
    <i name="hartreedc">  -1058.16724447 </i>
    <i name="XCdc">     28.30866934 </i>
    <i name="pawpsdc">   7989.68388808 </i>
    <i name="pawaedc">  -7780.56976598 </i>
    <i name="eentropy">     -0.00000000 </i>
    <i name="bandstr">   -152.34969820 </i>
    <i name="atom">   3759.73604014 </i>
    <i name="e_fr_energy">   -132.30096687 </i>
    <i name="e_wo_entrp">   -132.30096687 </i>
    <i name="e_0_energy">   -132.30096687 </i>
   </energy>
  </scstep>
  <scstep>
   <time name="diag">    0.10    0.10</time>
   <time name="diis">    0.20    0.20</time>
   <time name="orth">    0.01    0.01</time>
   <time name="total">    0.33    0.33</time>
   <energy>
    <i name="e_fr_energy">   -131.89384228 </i>
    <i name="e_wo_entrp">   -131.89384228 </i>
    <i name="e_0_energy">   -131.89384228 </i>
   </energy>
  </scstep>
  <scstep>
   <time name="diag">    0.10    0.10</time>
   <time name="diis">    0.19    0.19</time>
   <time name="orth">    0.01    0.01</time>
   <time name="total">    0.33    0.33</time>
   <energy>
    <i name="e_fr_energy">   -131.83799655 </i>
    <i name="e_wo_entrp">   -131.83799655 </i>
    <i name="e_0_energy">   -131.83799655 </i>
   </energy>
  </scstep>
  <scstep>
   <time name="diag">    0.10    0.10</time>
   <time name="diis">    0.19    0.19</time>
   <time name="orth">    0.01    0.01</time>
   <time name="total">    0.33    0.33</time>
   <energy>
    <i name="e_fr_energy">   -131.82744291 </i>
    <i name="e_wo_entrp">   -131.82744291 </i>
    <i name="e_0_energy">   -131.82744291 </i>
   </energy>
  </scstep>
  <scstep>
   <time name="diag">    0.10    0.10</time>
   <time name="diis">    0.19    0.19</time>
   <time name="orth">    0.01    0.01</time>
   <time name="total">    0.32    0.33</time>
   <energy>
    <i name="e_fr_energy">   -131.82180871 </i>
    <i name="e_wo_entrp">   -131.82180871 </i>
    <i name="e_0_energy">   -131.82180871 </i>
   </energy>
  </scstep>
  <scstep>
   <time name="diag">    0.10    0.10</time>
   <time name="diis">    0.20    0.20</time>
   <time name="orth">    0.01    0.01</time>
   <time name="total">    0.33    0.33</time>
   <energy>
    <i name="e_fr_energy">   -131.82176087 </i>
    <i name="e_wo_entrp">   -131.82176087 </i>
    <i name="e_0_energy">   -131.82176087 </i>
   </energy>
  </scstep>
  <scstep>
   <time name="diag">    0.10    0.10</time>
   <time name="diis">    0.19    0.19</time>
   <time name="orth">    0.01    0.01</time>
   <time name="total">    0.33    0.33</time>
   <energy>
    <i name="e_fr_energy">   -131.82161980 </i>
    <i name="e_wo_entrp">   -131.82161980 </i>
    <i name="e_0_energy">   -131.82161980 </i>
   </energy>
  </scstep>
  <scstep>
   <time name="diag">    0.10    0.10</time>
   <time name="diis">    0.17    0.17</time>
   <time name="orth">    0.01    0.01</time>
   <time name="total">    0.28    0.28</time>
   <energy>
    <i name="alphaZ">    238.81820658 </i>
    <i name="ewald">  -3157.76106237 </i>
    <i name="hartreedc">  -1059.59143777 </i>
    <i name="XCdc">     28.42974070 </i>
    <i name="pawpsdc">   7663.75854316 </i>
    <i name="pawaedc">  -7454.42805965 </i>
    <i name="eentropy">     -0.00000000 </i>
    <i name="bandstr">   -150.78359656 </i>
    <i name="atom">   3759.73604014 </i>
    <i name="e_fr_energy">   -131.82162577 </i>
    <i name="e_wo_entrp">   -131.82162577 </i>
    <i name="e_0_energy">   -131.82162577 </i>
   </energy>
  </scstep>
  <structure>
   <crystal>
    <varray name="basis" >
     <v>       5.07556800       0.00000000       0.00000000 </v>
     <v>       0.00000000       5.07556800       0.00000000 </v>
     <v>       0.00000000       0.00000000       5.07556800 </v>
    </varray>
    <i name="volume">    130.75368937 </i>
    <varray name="rec_basis" >
     <v>       0.19702228       0.00000000       0.00000000 </v>
     <v>       0.00000000       0.19702228       0.00000000 </v>
     <v>       0.00000000       0.00000000       0.19702228 </v>
    </varray>
   </crystal>
   <varray name="positions" >
    <v>       0.01152408      -0.00116947       0.01405741 </v>
    <v>       0.01152408       0.49883053       0.48594259 </v>
    <v>       0.48847592      -0.00116947       0.51405741 </v>
    <v>       0.48847592       0.49883053      -0.01405741 </v>
    <v>       0.24912016       0.28791634       0.72980218 </v>
    <v>       0.24912016       0.78791634       0.77019782 </v>
    <v>       0.25087984       0.78791634       0.27019782 </v>
    <v>       0.25087984       0.28791634       0.22980218 </v>
    <v>       0.77626806       0.21325313       0.35509580 </v>
    <v>       0.77626806       0.71325313       0.14490420 </v>
    <v>       0.72373194       0.71325313       0.64490420 </v>
    <v>       0.72373194       0.21325313       0.85509580 </v>
   </varray>
  </structure>
  <varray name="forces" >
   <v>      -0.00162353       1.21081853       0.30102423 </v>
   <v>      -0.00162353       1.21081853      -0.30102423 </v>
   <v>       0.00162353       1.21081853       0.30102423 </v>
   <v>       0.00162353       1.21081853      -0.30102423 </v>
   <v>      -0.45982642      -1.09179394      -0.71494225 </v>
   <v>      -0.45982642      -1.09179394       0.71494225 </v>
   <v>       0.45982642      -1.09179394       0.71494225 </v>
   <v>       0.45982642      -1.09179394      -0.71494225 </v>
   <v>       0.31064292      -0.11902459      -0.70861010 </v>
   <v>       0.31064292      -0.11902459       0.70861010 </v>
   <v>      -0.31064292      -0.11902459       0.70861010 </v>
   <v>      -0.31064292      -0.11902459      -0.70861010 </v>
  </varray>
  <varray name="stress" >
   <v>     -26.22555547       0.00000000       0.00000000 </v>
   <v>       0.00000000     -31.47367476       0.00000000 </v>
   <v>       0.00000000       0.00000000      78.59277932 </v>
  </varray>
  <energy>
   <i name="e_fr_energy">   -131.82162577 </i>
   <i name="e_wo_entrp">   -131.82162577 </i>
   <i name="e_0_energy">     -0.00000000 </i>
  </energy>
  <time name="totalsc">    2.94    2.96</time>
 </calculation>
 <calculation>
  <scstep>
   <time name="diag">    0.10    0.10</time>
   <time name="diis">    0.19    0.19</time>
   <time name="orth">    0.01    0.01</time>
   <time name="total">    0.33    0.33</time>
   <energy>
    <i name="alphaZ">    238.81820658 </i>
    <i name="ewald">  -3156.47584779 </i>
    <i name="hartreedc">  -1061.12780902 </i>
    <i name="XCdc">     28.39699604 </i>
    <i name="pawpsdc">   7663.52662923 </i>
    <i name="pawaedc">  -7454.19468291 </i>
    <i name="eentropy">     -0.00000000 </i>
    <i name="bandstr">   -151.03712834 </i>
    <i name="atom">   3759.73604014 </i>
    <i name="e_fr_energy">   -132.35759606 </i>
    <i name="e_wo_entrp">   -132.35759606 </i>
    <i name="e_0_energy">   -132.35759606 </i>
   </energy>
  </scstep>
  <scstep>
   <time name="diag">    0.10    0.10</time>
   <time name="diis">    0.19    0.19</time>
   <time name="orth">    0.01    0.01</time>
   <time name="total">    0.33    0.33</time>
   <energy>
    <i name="e_fr_energy">   -132.11006816 </i>
    <i name="e_wo_entrp">   -132.11006816 </i>
    <i name="e_0_energy">   -132.11006816 </i>
   </energy>
  </scstep>
  <scstep>
   <time name="diag">    0.10    0.10</time>
   <time name="diis">    0.19    0.20</time>
   <time name="orth">    0.01    0.01</time>
   <time name="total">    0.33    0.33</time>
   <energy>
    <i name="e_fr_energy">   -132.07943486 </i>
    <i name="e_wo_entrp">   -132.07943486 </i>
    <i name="e_0_energy">   -132.07943486 </i>
   </energy>
  </scstep>
  <scstep>
   <time name="diag">    0.10    0.10</time>
   <time name="diis">    0.19    0.19</time>
   <time name="orth">    0.01    0.01</time>
   <time name="total">    0.32    0.32</time>
   <energy>
    <i name="e_fr_energy">   -132.07215170 </i>
    <i name="e_wo_entrp">   -132.07215170 </i>
    <i name="e_0_energy">   -132.07215170 </i>
   </energy>
  </scstep>
  <scstep>
   <time name="diag">    0.10    0.10</time>
   <time name="diis">    0.19    0.19</time>
   <time name="orth">    0.01    0.01</time>
   <time name="total">    0.32    0.32</time>
   <energy>
    <i name="e_fr_energy">   -132.07044749 </i>
    <i name="e_wo_entrp">   -132.07044749 </i>
    <i name="e_0_energy">   -132.07044749 </i>
   </energy>
  </scstep>
  <scstep>
   <time name="diag">    0.10    0.10</time>
   <time name="diis">    0.20    0.20</time>
   <time name="orth">    0.01    0.01</time>
   <time name="total">    0.33    0.33</time>
   <energy>
    <i name="e_fr_energy">   -132.07042941 </i>
    <i name="e_wo_entrp">   -132.07042941 </i>
    <i name="e_0_energy">   -132.07042941 </i>
   </energy>
  </scstep>
  <scstep>
   <time name="diag">    0.10    0.10</time>
   <time name="diis">    0.19    0.19</time>
   <time name="orth">    0.01    0.01</time>
   <time name="total">    0.32    0.32</time>
   <energy>
    <i name="e_fr_energy">   -132.07038950 </i>
    <i name="e_wo_entrp">   -132.07038950 </i>
    <i name="e_0_energy">   -132.07038950 </i>
   </energy>
  </scstep>
  <scstep>
   <time name="diag">    0.10    0.10</time>
   <time name="diis">    0.13    0.13</time>
   <time name="orth">    0.01    0.01</time>
   <time name="total">    0.24    0.24</time>
   <energy>
    <i name="alphaZ">    238.81820658 </i>
    <i name="ewald">  -3156.47584779 </i>
    <i name="hartreedc">  -1062.22648086 </i>
    <i name="XCdc">     28.47037189 </i>
    <i name="pawpsdc">   7576.69659400 </i>
    <i name="pawaedc">  -7367.29926310 </i>
    <i name="eentropy">     -0.00000000 </i>
    <i name="bandstr">   -149.79001058 </i>
    <i name="atom">   3759.73604014 </i>
    <i name="e_fr_energy">   -132.07038972 </i>
    <i name="e_wo_entrp">   -132.07038972 </i>
    <i name="e_0_energy">   -132.07038972 </i>
   </energy>
  </scstep>
  <structure>
   <crystal>
    <varray name="basis" >
     <v>       5.07556800       0.00000000       0.00000000 </v>
     <v>       0.00000000       5.07556800       0.00000000 </v>
     <v>       0.00000000       0.00000000       5.07556800 </v>
    </varray>
    <i name="volume">    130.75368937 </i>
    <varray name="rec_basis" >
     <v>       0.19702228       0.00000000       0.00000000 </v>
     <v>       0.00000000       0.19702228       0.00000000 </v>
     <v>       0.00000000       0.00000000       0.19702228 </v>
    </varray>
   </crystal>
   <varray name="positions" >
    <v>       0.00589388       0.00356092       0.01845222 </v>
    <v>       0.00589388       0.50356092       0.48154778 </v>
    <v>       0.49410612       0.00356092       0.51845222 </v>
    <v>       0.49410612       0.50356092      -0.01845222 </v>
    <v>       0.24848904       0.27868358       0.72648130 </v>
    <v>       0.24848904       0.77868358       0.77351870 </v>
    <v>       0.25151096       0.77868358       0.27351870 </v>
    <v>       0.25151096       0.27868358       0.22648130 </v>
    <v>       0.78387733       0.21775550       0.35094165 </v>
    <v>       0.78387733       0.71775550       0.14905835 </v>
    <v>       0.71612267       0.71775550       0.64905835 </v>
    <v>       0.71612267       0.21775550       0.85094165 </v>
   </varray>
  </structure>
  <varray name="forces" >
   <v>       1.52664552       1.22626516      -0.12884098 </v>
   <v>       1.52664552       1.22626516       0.12884098 </v>
   <v>      -1.52664552       1.22626516      -0.12884098 </v>
   <v>      -1.52664552       1.22626516       0.12884098 </v>
   <v>      -0.70519346      -0.47552201      -0.65724625 </v>
   <v>      -0.70519346      -0.47552201       0.65724625 </v>
   <v>       0.70519346      -0.47552201       0.65724625 </v>
   <v>       0.70519346      -0.47552201      -0.65724625 </v>
   <v>      -0.47509839      -0.75074315      -0.81021048 </v>
   <v>      -0.47509839      -0.75074315       0.81021048 </v>
   <v>       0.47509839      -0.75074315       0.81021048 </v>
   <v>       0.47509839      -0.75074315      -0.81021048 </v>
  </varray>
  <varray name="stress" >
   <v>     -31.76634131       0.00000000       0.00000000 </v>
   <v>       0.00000000     -31.52750878       0.00000000 </v>
   <v>       0.00000000       0.00000000      43.98586788 </v>
  </varray>
  <energy>
   <i name="e_fr_energy">   -132.07038972 </i>
   <i name="e_wo_entrp">   -132.07038972 </i>
   <i name="e_0_energy">     -0.00000000 </i>
  </energy>
  <time name="totalsc">    2.90    2.91</time>
 </calculation>
 <calculation>
  <scstep>
   <time name="diag">    0.10    0.10</time>
   <time name="diis">    0.19    0.19</time>
   <time name="orth">    0.01    0.01</time>
   <time name="total">    0.32    0.33</time>
   <energy>
    <i name="alphaZ">    238.81820658 </i>
    <i name="ewald">  -3158.82160016 </i>
    <i name="hartreedc">  -1061.11585180 </i>
    <i name="XCdc">     28.45152686 </i>
    <i name="pawpsdc">   7576.77675331 </i>
    <i name="pawaedc">  -7367.37871693 </i>
    <i name="eentropy">     -0.00000000 </i>
    <i name="bandstr">   -149.41140147 </i>
    <i name="atom">   3759.73604014 </i>
    <i name="e_fr_energy">   -132.94504346 </i>
    <i name="e_wo_entrp">   -132.94504346 </i>
    <i name="e_0_energy">   -132.94504346 </i>
   </energy>
  </scstep>
  <scstep>
   <time name="diag">    0.10    0.10</time>
   <time name="diis">    0.20    0.20</time>
   <time name="orth">    0.01    0.01</time>
   <time name="total">    0.33    0.33</time>
   <energy>
    <i name="e_fr_energy">   -132.61940066 </i>
    <i name="e_wo_entrp">   -132.61940066 </i>
    <i name="e_0_energy">   -132.61940066 </i>
   </energy>
  </scstep>
  <scstep>
   <time name="diag">    0.10    0.10</time>
   <time name="diis">    0.21    0.21</time>
   <time name="orth">    0.01    0.01</time>
   <time name="total">    0.34    0.34</time>
   <energy>
    <i name="e_fr_energy">   -132.59013979 </i>
    <i name="e_wo_entrp">   -132.59013979 </i>
    <i name="e_0_energy">   -132.59013979 </i>
   </energy>
  </scstep>
  <scstep>
   <time name="diag">    0.10    0.10</time>
   <time name="diis">    0.19    0.19</time>
   <time name="orth">    0.01    0.01</time>
   <time name="total">    0.32    0.32</time>
   <energy>
    <i name="e_fr_energy">   -132.57937295 </i>
    <i name="e_wo_entrp">   -132.57937295 </i>
    <i name="e_0_energy">   -132.57937295 </i>
   </energy>
  </scstep>
  <scstep>
   <time name="diag">    0.10    0.10</time>
   <time name="diis">    0.19    0.19</time>
   <time name="orth">    0.01    0.01</time>
   <time name="total">    0.32    0.33</time>
   <energy>
    <i name="e_fr_energy">   -132.57376222 </i>
    <i name="e_wo_entrp">   -132.57376222 </i>
    <i name="e_0_energy">   -132.57376222 </i>
   </energy>
  </scstep>
  <scstep>
   <time name="diag">    0.10    0.10</time>
   <time name="diis">    0.19    0.19</time>
   <time name="orth">    0.01    0.01</time>
   <time name="total">    0.32    0.32</time>
   <energy>
    <i name="e_fr_energy">   -132.57348217 </i>
    <i name="e_wo_entrp">   -132.57348217 </i>
    <i name="e_0_energy">   -132.57348217 </i>
   </energy>
  </scstep>
  <scstep>
   <time name="diag">    0.10    0.10</time>
   <time name="diis">    0.19    0.19</time>
   <time name="orth">    0.01    0.01</time>
   <time name="total">    0.32    0.32</time>
   <energy>
    <i name="e_fr_energy">   -132.57319315 </i>
    <i name="e_wo_entrp">   -132.57319315 </i>
    <i name="e_0_energy">   -132.57319315 </i>
   </energy>
  </scstep>
  <scstep>
   <time name="diag">    0.10    0.10</time>
   <time name="diis">    0.14    0.14</time>
   <time name="orth">    0.01    0.01</time>
   <time name="total">    0.25    0.25</time>
   <energy>
    <i name="alphaZ">    238.81820658 </i>
    <i name="ewald">  -3158.82160016 </i>
    <i name="hartreedc">  -1060.83052139 </i>
    <i name="XCdc">     28.43814378 </i>
    <i name="pawpsdc">   7401.75380255 </i>
    <i name="pawaedc">  -7192.23735776 </i>
    <i name="eentropy">     -0.00000000 </i>
    <i name="bandstr">   -149.42990673 </i>
    <i name="atom">   3759.73604014 </i>
    <i name="e_fr_energy">   -132.57319300 </i>
    <i name="e_wo_entrp">   -132.57319300 </i>
    <i name="e_0_energy">   -132.57319300 </i>
   </energy>
  </scstep>
  <structure>
   <crystal>
    <varray name="basis" >
     <v>       5.07556800       0.00000000       0.00000000 </v>
     <v>       0.00000000       5.07556800       0.00000000 </v>
     <v>       0.00000000       0.00000000       5.07556800 </v>
    </varray>
    <i name="volume">    130.75368937 </i>
    <varray name="rec_basis" >
     <v>       0.19702228       0.00000000       0.00000000 </v>
     <v>       0.00000000       0.19702228       0.00000000 </v>
     <v>       0.00000000       0.00000000       0.19702228 </v>
    </varray>
   </crystal>
   <varray name="positions" >
    <v>       0.01089488       0.01446283       0.02094673 </v>
    <v>       0.01089488       0.51446283       0.47905327 </v>
    <v>       0.48910512       0.01446283       0.52094673 </v>
    <v>       0.48910512       0.51446283      -0.02094673 </v>
    <v>       0.24377417       0.26895096       0.72005366 </v>
    <v>       0.24377417       0.76895096       0.77994634 </v>
    <v>       0.25622583       0.76895096       0.27994634 </v>
    <v>       0.25622583       0.26895096       0.22005366 </v>
    <v>       0.78667922       0.21658621       0.34297315 </v>
    <v>       0.78667922       0.71658621       0.15702685 </v>
    <v>       0.71332078       0.71658621       0.65702685 </v>
    <v>       0.71332078       0.21658621       0.84297315 </v>
   </varray>
  </structure>
  <varray name="forces" >
   <v>      -0.09376343       0.43033335      -0.20068658 </v>
   <v>      -0.09376343       0.43033335       0.20068658 </v>
   <v>       0.09376343       0.43033335      -0.20068658 </v>
   <v>       0.09376343       0.43033335       0.20068658 </v>
   <v>      -0.77896793       0.04713502      -0.10365920 </v>
   <v>      -0.77896793       0.04713502       0.10365920 </v>
   <v>       0.77896793       0.04713502       0.10365920 </v>
   <v>       0.77896793       0.04713502      -0.10365920 </v>
   <v>      -0.27370257      -0.47746838      -0.32076406 </v>
   <v>      -0.27370257      -0.47746838       0.32076406 </v>
   <v>       0.27370257      -0.47746838       0.32076406 </v>
   <v>       0.27370257      -0.47746838      -0.32076406 </v>
  </varray>
  <varray name="stress" >
   <v>     -65.08422433       0.00000000       0.00000000 </v>
   <v>       0.00000000     -66.86359907       0.00000000 </v>
   <v>       0.00000000       0.00000000      26.46523481 </v>
  </varray>
  <energy>
   <i name="e_fr_energy">   -132.57319300 </i>
   <i name="e_wo_entrp">   -132.57319300 </i>
   <i name="e_0_energy">     -0.00000000 </i>
  </energy>
  <time name="totalsc">    2.92    2.93</time>
 </calculation>
 <calculation>
  <scstep>
   <time name="diag">    0.10    0.10</time>
   <time name="diis">    0.19    0.19</time>
   <time name="orth">    0.01    0.01</time>
   <time name="total">    0.33    0.33</time>
   <energy>
    <i name="alphaZ">    238.81820658 </i>
    <i name="ewald">  -3158.77206059 </i>
    <i name="hartreedc">  -1060.87786739 </i>
    <i name="XCdc">     28.43268136 </i>
    <i name="pawpsdc">   7402.06663812 </i>
    <i name="pawaedc">  -7192.54980273 </i>
    <i name="eentropy">     -0.00000000 </i>
    <i name="bandstr">   -149.48644974 </i>
    <i name="atom">   3759.73604014 </i>
    <i name="e_fr_energy">   -132.63261425 </i>
    <i name="e_wo_entrp">   -132.63261425 </i>
    <i name="e_0_energy">   -132.63261425 </i>
   </energy>
  </scstep>
  <scstep>
   <time name="diag">    0.10    0.10</time>
   <time name="diis">    0.20    0.20</time>
   <time name="orth">    0.01    0.01</time>
   <time name="total">    0.33    0.33</time>
   <energy>
    <i name="e_fr_energy">   -132.60813876 </i>
    <i name="e_wo_entrp">   -132.60813876 </i>
    <i name="e_0_energy">   -132.60813876 </i>
   </energy>
  </scstep>
  <scstep>
   <time name="diag">    0.10    0.10</time>
   <time name="diis">    0.20    0.20</time>
   <time name="orth">    0.01    0.01</time>
   <time name="total">    0.33    0.33</time>
   <energy>
    <i name="e_fr_energy">   -132.60524762 </i>
    <i name="e_wo_entrp">   -132.60524762 </i>
    <i name="e_0_energy">   -132.60524762 </i>
   </energy>
  </scstep>
  <scstep>
   <time name="diag">    0.10    0.10</time>
   <time name="diis">    0.19    0.19</time>
   <time name="orth">    0.01    0.01</time>
   <time name="total">    0.32    0.33</time>
   <energy>
    <i name="e_fr_energy">   -132.60479411 </i>
    <i name="e_wo_entrp">   -132.60479411 </i>
    <i name="e_0_energy">   -132.60479411 </i>
   </energy>
  </scstep>
  <scstep>
   <time name="diag">    0.10    0.10</time>
   <time name="diis">    0.19    0.19</time>
   <time name="orth">    0.01    0.01</time>
   <time name="total">    0.32    0.33</time>
   <energy>
    <i name="e_fr_energy">   -132.60474211 </i>
    <i name="e_wo_entrp">   -132.60474211 </i>
    <i name="e_0_energy">   -132.60474211 </i>
   </energy>
  </scstep>
  <scstep>
   <time name="diag">    0.10    0.10</time>
   <time name="diis">    0.17    0.17</time>
   <time name="orth">    0.01    0.01</time>
   <time name="total">    0.28    0.28</time>
   <energy>
    <i name="alphaZ">    238.81820658 </i>
    <i name="ewald">  -3158.77206059 </i>
    <i name="hartreedc">  -1060.69787231 </i>
    <i name="XCdc">     28.41940046 </i>
    <i name="pawpsdc">   7393.65573628 </i>
    <i name="pawaedc">  -7184.13056598 </i>
    <i name="eentropy">     -0.00000000 </i>
    <i name="bandstr">   -149.63361790 </i>
    <i name="atom">   3759.73604014 </i>
    <i name="e_fr_energy">   -132.60473332 </i>
    <i name="e_wo_entrp">   -132.60473332 </i>
    <i name="e_0_energy">   -132.60473332 </i>
   </energy>
  </scstep>
  <structure>
   <crystal>
    <varray name="basis" >
     <v>       5.07556800       0.00000000       0.00000000 </v>
     <v>       0.00000000       5.07556800       0.00000000 </v>
     <v>       0.00000000       0.00000000       5.07556800 </v>
    </varray>
    <i name="volume">    130.75368937 </i>
    <varray name="rec_basis" >
     <v>       0.19702228       0.00000000       0.00000000 </v>
     <v>       0.00000000       0.19702228       0.00000000 </v>
     <v>       0.00000000       0.00000000       0.19702228 </v>
    </varray>
   </crystal>
   <varray name="positions" >
    <v>       0.01246212       0.01787935       0.02172847 </v>
    <v>       0.01246212       0.51787935       0.47827153 </v>
    <v>       0.48753788       0.01787935       0.52172847 </v>
    <v>       0.48753788       0.51787935      -0.02172847 </v>
    <v>       0.24229660       0.26590088       0.71803932 </v>
    <v>       0.24229660       0.76590088       0.78196068 </v>
    <v>       0.25770340       0.76590088       0.28196068 </v>
    <v>       0.25770340       0.26590088       0.21803932 </v>
    <v>       0.78755729       0.21621977       0.34047593 </v>
    <v>       0.78755729       0.71621977       0.15952407 </v>
    <v>       0.71244271       0.71621977       0.65952407 </v>
    <v>       0.71244271       0.21621977       0.84047593 </v>
   </varray>
  </structure>
  <varray name="forces" >
   <v>      -0.63572344       0.14061197      -0.29063324 </v>
   <v>      -0.63572344       0.14061197       0.29063324 </v>
   <v>       0.63572344       0.14061197      -0.29063324 </v>
   <v>       0.63572344       0.14061197       0.29063324 </v>
   <v>      -0.86971453       0.26365985       0.08763628 </v>
   <v>      -0.86971453       0.26365985      -0.08763628 </v>
   <v>       0.86971453       0.26365985      -0.08763628 </v>
   <v>       0.86971453       0.26365985       0.08763628 </v>
   <v>      -0.23627928      -0.40427182      -0.18212460 </v>
   <v>      -0.23627928      -0.40427182       0.18212460 </v>
   <v>       0.23627928      -0.40427182       0.18212460 </v>
   <v>       0.23627928      -0.40427182      -0.18212460 </v>
  </varray>
  <varray name="stress" >
   <v>     -69.00830478       0.00000000       0.00000000 </v>
   <v>       0.00000000     -69.75832612       0.00000000 </v>
   <v>       0.00000000       0.00000000      24.81139851 </v>
  </varray>
  <energy>
   <i name="e_fr_energy">   -132.60473332 </i>
   <i name="e_wo_entrp">   -132.60473332 </i>
   <i name="e_0_energy">     -0.00000000 </i>
  </energy>
  <time name="totalsc">    2.29    2.31</time>
 </calculation>
 <calculation>
  <scstep>
   <time name="diag">    0.10    0.10</time>
   <time name="diis">    0.19    0.19</time>
   <time name="orth">    0.01    0.01</time>
   <time name="total">    0.32    0.33</time>
   <energy>
    <i name="alphaZ">    238.81820658 </i>
    <i name="ewald">  -3162.85514393 </i>
    <i name="hartreedc">  -1057.49110212 </i>
    <i name="XCdc">     28.38734947 </i>
    <i name="pawpsdc">   7393.64453299 </i>
    <i name="pawaedc">  -7184.11942928 </i>
    <i name="eentropy">     -0.00000000 </i>
    <i name="bandstr">   -148.95147783 </i>
    <i name="atom">   3759.73604014 </i>
    <i name="e_fr_energy">   -132.83102398 </i>
    <i name="e_wo_entrp">   -132.83102398 </i>
    <i name="e_0_energy">   -132.83102398 </i>
   </energy>
  </scstep>
  <scstep>
   <time name="diag">    0.10    0.10</time>
   <time name="diis">    0.19    0.19</time>
   <time name="orth">    0.01    0.01</time>
   <time name="total">    0.33    0.33</time>
   <energy>
    <i name="e_fr_energy">   -132.75159348 </i>
    <i name="e_wo_entrp">   -132.75159348 </i>
    <i name="e_0_energy">   -132.75159348 </i>
   </energy>
  </scstep>
  <scstep>
   <time name="diag">    0.10    0.10</time>
   <time name="diis">    0.20    0.20</time>
   <time name="orth">    0.01    0.01</time>
   <time name="total">    0.34    0.34</time>
   <energy>
    <i name="e_fr_energy">   -132.74419951 </i>
    <i name="e_wo_entrp">   -132.74419951 </i>
    <i name="e_0_energy">   -132.74419951 </i>
   </energy>
  </scstep>
  <scstep>
   <time name="diag">    0.10    0.10</time>
   <time name="diis">    0.19    0.19</time>
   <time name="orth">    0.01    0.01</time>
   <time name="total">    0.33    0.33</time>
   <energy>
    <i name="e_fr_energy">   -132.74271404 </i>
    <i name="e_wo_entrp">   -132.74271404 </i>
    <i name="e_0_energy">   -132.74271404 </i>
   </energy>
  </scstep>
  <scstep>
   <time name="diag">    0.10    0.10</time>
   <time name="diis">    0.19    0.19</time>
   <time name="orth">    0.01    0.01</time>
   <time name="total">    0.32    0.33</time>
   <energy>
    <i name="e_fr_energy">   -132.74243287 </i>
    <i name="e_wo_entrp">   -132.74243287 </i>
    <i name="e_0_energy">   -132.74243287 </i>
   </energy>
  </scstep>
  <scstep>
   <time name="diag">    0.10    0.10</time>
   <time name="diis">    0.19    0.19</time>
   <time name="orth">    0.01    0.01</time>
   <time name="total">    0.33    0.33</time>
   <energy>
    <i name="e_fr_energy">   -132.74243782 </i>
    <i name="e_wo_entrp">   -132.74243782 </i>
    <i name="e_0_energy">   -132.74243782 </i>
   </energy>
  </scstep>
  <scstep>
   <time name="diag">    0.10    0.10</time>
   <time name="diis">    0.19    0.19</time>
   <time name="orth">    0.01    0.01</time>
   <time name="total">    0.32    0.32</time>
   <energy>
    <i name="e_fr_energy">   -132.74241470 </i>
    <i name="e_wo_entrp">   -132.74241470 </i>
    <i name="e_0_energy">   -132.74241470 </i>
   </energy>
  </scstep>
  <scstep>
   <time name="diag">    0.10    0.10</time>
   <time name="diis">    0.13    0.13</time>
   <time name="orth">    0.01    0.01</time>
   <time name="total">    0.24    0.24</time>
   <energy>
    <i name="alphaZ">    238.81820658 </i>
    <i name="ewald">  -3162.85514393 </i>
    <i name="hartreedc">  -1057.37921630 </i>
    <i name="XCdc">     28.39023306 </i>
    <i name="pawpsdc">   7341.58232303 </i>
    <i name="pawaedc">  -7132.02385352 </i>
    <i name="eentropy">     -0.00000000 </i>
    <i name="bandstr">   -149.01100316 </i>
    <i name="atom">   3759.73604014 </i>
    <i name="e_fr_energy">   -132.74241409 </i>
    <i name="e_wo_entrp">   -132.74241409 </i>
    <i name="e_0_energy">   -132.74241409 </i>
   </energy>
  </scstep>
  <structure>
   <crystal>
    <varray name="basis" >
     <v>       5.07556800       0.00000000       0.00000000 </v>
     <v>       0.00000000       5.07556800       0.00000000 </v>
     <v>       0.00000000       0.00000000       5.07556800 </v>
    </varray>
    <i name="volume">    130.75368937 </i>
    <varray name="rec_basis" >
     <v>       0.19702228       0.00000000       0.00000000 </v>
     <v>       0.00000000       0.19702228       0.00000000 </v>
     <v>       0.00000000       0.00000000       0.19702228 </v>
    </varray>
   </crystal>
   <varray name="positions" >
    <v>       0.00951657       0.02122337       0.02042854 </v>
    <v>       0.00951657       0.52122337       0.47957146 </v>
    <v>       0.49048343       0.02122337       0.52042854 </v>
    <v>       0.49048343       0.52122337      -0.02042854 </v>
    <v>       0.23567558       0.26540529       0.71715872 </v>
    <v>       0.23567558       0.76540529       0.78284128 </v>
    <v>       0.26432442       0.76540529       0.28284128 </v>
    <v>       0.26432442       0.26540529       0.21715872 </v>
    <v>       0.78667400       0.21337134       0.33752408 </v>
    <v>       0.78667400       0.71337134       0.16247592 </v>
    <v>       0.71332600       0.71337134       0.66247592 </v>
    <v>       0.71332600       0.21337134       0.83752408 </v>
   </varray>
  </structure>
  <varray name="forces" >
   <v>       0.04805033      -0.02886146      -0.06014241 </v>
   <v>       0.04805033      -0.02886146       0.06014241 </v>
   <v>      -0.04805033      -0.02886146      -0.06014241 </v>
   <v>      -0.04805033      -0.02886146       0.06014241 </v>
   <v>      -0.45313346       0.15489328       0.05811104 </v>
   <v>      -0.45313346       0.15489328      -0.05811104 </v>
   <v>       0.45313346       0.15489328      -0.05811104 </v>
   <v>       0.45313346       0.15489328       0.05811104 </v>
   <v>       0.11965457      -0.12603182      -0.16022659 </v>
   <v>       0.11965457      -0.12603182       0.16022659 </v>
   <v>      -0.11965457      -0.12603182       0.16022659 </v>
   <v>      -0.11965457      -0.12603182      -0.16022659 </v>
  </varray>
  <varray name="stress" >
   <v>     -78.77156535       0.00000000       0.00000000 </v>
   <v>       0.00000000     -78.39171706       0.00000000 </v>
   <v>       0.00000000       0.00000000      16.26124051 </v>
  </varray>
  <energy>
   <i name="e_fr_energy">   -132.74241409 </i>
   <i name="e_wo_entrp">   -132.74241409 </i>
   <i name="e_0_energy">     -0.00000000 </i>
  </energy>
  <time name="totalsc">    2.91    2.92</time>
 </calculation>
 <calculation>
  <scstep>
   <time name="diag">    0.10    0.10</time>
   <time name="diis">    0.19    0.19</time>
   <time name="orth">    0.01    0.01</time>
   <time name="total">    0.33    0.33</time>
   <energy>
    <i name="alphaZ">    238.81820658 </i>
    <i name="ewald">  -3164.46941149 </i>
    <i name="hartreedc">  -1056.07657583 </i>
    <i name="XCdc">     28.37524035 </i>
    <i name="pawpsdc">   7341.75909147 </i>
    <i name="pawaedc">  -7132.20083797 </i>
    <i name="eentropy">     -0.00000000 </i>
    <i name="bandstr">   -148.72488090 </i>
    <i name="atom">   3759.73604014 </i>
    <i name="e_fr_energy">   -132.78312764 </i>
    <i name="e_wo_entrp">   -132.78312764 </i>
    <i name="e_0_energy">   -132.78312764 </i>
   </energy>
  </scstep>
  <scstep>
   <time name="diag">    0.10    0.10</time>
   <time name="diis">    0.19    0.19</time>
   <time name="orth">    0.01    0.01</time>
   <time name="total">    0.33    0.33</time>
   <energy>
    <i name="e_fr_energy">   -132.76313690 </i>
    <i name="e_wo_entrp">   -132.76313690 </i>
    <i name="e_0_energy">   -132.76313690 </i>
   </energy>
  </scstep>
  <scstep>
   <time name="diag">    0.10    0.10</time>
   <time name="diis">    0.19    0.19</time>
   <time name="orth">    0.01    0.01</time>
   <time name="total">    0.32    0.33</time>
   <energy>
    <i name="e_fr_energy">   -132.76093071 </i>
    <i name="e_wo_entrp">   -132.76093071 </i>
    <i name="e_0_energy">   -132.76093071 </i>
   </energy>
  </scstep>
  <scstep>
   <time name="diag">    0.10    0.10</time>
   <time name="diis">    0.20    0.20</time>
[...]
       <r>    9.8011    0.0000 </r>
       <r>    9.8011    0.0000 </r>
       <r>    9.8011    0.0000 </r>
       <r>   10.7411    0.0000 </r>
       <r>   10.7411    0.0000 </r>
      </set>
      <set comment="kpoint 26">
       <r>  -13.1279    1.0000 </r>
       <r>  -13.1279    1.0000 </r>
       <r>  -13.0996    1.0000 </r>
       <r>  -13.0996    1.0000 </r>
       <r>  -12.1358    1.0000 </r>
       <r>  -12.1358    1.0000 </r>
       <r>  -12.0989    1.0000 </r>
       <r>  -12.0989    1.0000 </r>
       <r>   -0.8167    1.0000 </r>
       <r>   -0.8167    1.0000 </r>
       <r>   -0.7139    1.0000 </r>
       <r>   -0.7139    1.0000 </r>
       <r>   -0.2706    1.0000 </r>
       <r>   -0.2706    1.0000 </r>
       <r>   -0.1590    1.0000 </r>
       <r>   -0.1590    1.0000 </r>
       <r>    0.5234    1.0000 </r>
       <r>    0.5234    1.0000 </r>
       <r>    0.6026    1.0000 </r>
       <r>    0.6026    1.0000 </r>
       <r>    1.4629    1.0000 </r>
       <r>    1.4629    1.0000 </r>
       <r>    1.5797    1.0000 </r>
       <r>    1.5797    1.0000 </r>
       <r>    2.0438    1.0000 </r>
       <r>    2.0438    1.0000 </r>
       <r>    2.1638    1.0000 </r>
       <r>    2.1638    1.0000 </r>
       <r>    2.8700    1.0000 </r>
       <r>    2.8700    1.0000 </r>
       <r>    3.1446    1.0000 </r>
       <r>    3.1446    1.0000 </r>
       <r>    8.2300    0.0000 </r>
       <r>    8.2300    0.0000 </r>
       <r>    8.7473    0.0000 </r>
       <r>    8.7473    0.0000 </r>
       <r>    9.4190    0.0000 </r>
       <r>    9.4190    0.0000 </r>
       <r>    9.7583    0.0000 </r>
       <r>    9.7583    0.0000 </r>
       <r>   10.4827    0.0000 </r>
       <r>   10.8383    0.0000 </r>
      </set>
      <set comment="kpoint 27">
       <r>  -13.1543    1.0000 </r>
       <r>  -13.1543    1.0000 </r>
       <r>  -13.1543    1.0000 </r>
       <r>  -13.1543    1.0000 </r>
       <r>  -12.0703    1.0000 </r>
       <r>  -12.0703    1.0000 </r>
       <r>  -12.0703    1.0000 </r>
       <r>  -12.0703    1.0000 </r>
       <r>   -0.7155    1.0000 </r>
       <r>   -0.7155    1.0000 </r>
       <r>   -0.7155    1.0000 </r>
       <r>   -0.7155    1.0000 </r>
       <r>   -0.2855    1.0000 </r>
       <r>   -0.2855    1.0000 </r>
       <r>   -0.2855    1.0000 </r>
       <r>   -0.2855    1.0000 </r>
       <r>    0.7056    1.0000 </r>
       <r>    0.7056    1.0000 </r>
       <r>    0.7056    1.0000 </r>
       <r>    0.7056    1.0000 </r>
       <r>    1.4948    1.0000 </r>
       <r>    1.4948    1.0000 </r>
       <r>    1.4948    1.0000 </r>
       <r>    1.4948    1.0000 </r>
       <r>    2.1718    1.0000 </r>
       <r>    2.1718    1.0000 </r>
       <r>    2.1718    1.0000 </r>
       <r>    2.1718    1.0000 </r>
       <r>    2.8848    1.0000 </r>
       <r>    2.8848    1.0000 </r>
       <r>    2.8848    1.0000 </r>
       <r>    2.8848    1.0000 </r>
       <r>    8.1845    0.0000 </r>
       <r>    8.1845    0.0000 </r>
       <r>    8.1845    0.0000 </r>
       <r>    8.1845    0.0000 </r>
       <r>    9.5215    0.0000 </r>
       <r>    9.5215    0.0000 </r>
       <r>    9.5215    0.0000 </r>
       <r>    9.5215    0.0000 </r>
       <r>   10.6671    0.0000 </r>
       <r>   10.6671    0.0000 </r>
      </set>
     </set>
    </set>
   </array>
  </eigenvalues>
  <separator name="orbital magnetization" >
   <v name="MAGDIPOLOUT">      0.00000000      0.00000000      0.00000000</v>
  </separator>
  <dos>
   <i name="efermi">      4.09523957 </i>
   <total>
    <array>
     <dimension dim="1">gridpoints</dimension>
     <dimension dim="2">spin</dimension>
     <field>energy</field>
     <field>total</field>
     <field>integrated</field>
     <set>
      <set comment="spin 1">
       <r>   -15.6246     0.0000     0.0000 </r>
       <r>   -15.5298     0.0000     0.0000 </r>
       <r>   -15.4351     0.0000     0.0000 </r>
       <r>   -15.3403     0.0000     0.0000 </r>
       <r>   -15.2455     0.0000     0.0000 </r>
       <r>   -15.1507     0.0000     0.0000 </r>
       <r>   -15.0560     0.0000     0.0000 </r>
       <r>   -14.9612     0.0000     0.0000 </r>
       <r>   -14.8664     0.0000     0.0000 </r>
       <r>   -14.7716     0.0000     0.0000 </r>
       <r>   -14.6768     0.0000     0.0000 </r>
       <r>   -14.5821     0.0000     0.0000 </r>
       <r>   -14.4873     0.0000     0.0000 </r>
       <r>   -14.3925     0.0145     0.0014 </r>
       <r>   -14.2977     0.2609     0.0261 </r>
       <r>   -14.2029     0.0676     0.0325 </r>
       <r>   -14.1082     1.0113     0.1284 </r>
       <r>   -14.0134     0.9692     0.2202 </r>
       <r>   -13.9186     2.0042     0.4102 </r>
       <r>   -13.8238     2.1666     0.6155 </r>
       <r>   -13.7291     2.4234     0.8452 </r>
       <r>   -13.6343     1.5528     0.9924 </r>
       <r>   -13.5395     1.5586     1.1401 </r>
       <r>   -13.4447     2.3676     1.3645 </r>
       <r>   -13.3499     6.8667     2.0153 </r>
       <r>   -13.2552     5.9452     2.5788 </r>
       <r>   -13.1604     1.3561     2.7073 </r>
       <r>   -13.0656     3.5392     3.0428 </r>
       <r>   -12.9708     3.8115     3.4040 </r>
       <r>   -12.8760    13.3111     4.6656 </r>
       <r>   -12.7813    11.9366     5.7969 </r>
       <r>   -12.6865     9.1668     6.6658 </r>
       <r>   -12.5917     7.9657     7.4207 </r>
       <r>   -12.4969     6.4450     8.0316 </r>
       <r>   -12.4022     6.4328     8.6413 </r>
       <r>   -12.3074     8.6982     9.4657 </r>
       <r>   -12.2126    16.4006    11.0201 </r>
       <r>   -12.1178    14.8179    12.4245 </r>
       <r>   -12.0230    15.1375    13.8592 </r>
       <r>   -11.9283    14.1779    15.2030 </r>
       <r>   -11.8335     7.4594    15.9100 </r>
       <r>   -11.7387     0.9351    15.9986 </r>
       <r>   -11.6439     0.0146    16.0000 </r>
       <r>   -11.5491     0.0000    16.0000 </r>
       <r>   -11.4544     0.0000    16.0000 </r>
       <r>   -11.3596     0.0000    16.0000 </r>
       <r>   -11.2648     0.0000    16.0000 </r>
       <r>   -11.1700     0.0000    16.0000 </r>
       <r>   -11.0753     0.0000    16.0000 </r>
       <r>   -10.9805     0.0000    16.0000 </r>
       <r>   -10.8857     0.0000    16.0000 </r>
       <r>   -10.7909     0.0000    16.0000 </r>
       <r>   -10.6961     0.0000    16.0000 </r>
       <r>   -10.6014     0.0000    16.0000 </r>
       <r>   -10.5066     0.0000    16.0000 </r>
       <r>   -10.4118     0.0000    16.0000 </r>
       <r>   -10.3170     0.0000    16.0000 </r>
       <r>   -10.2222     0.0000    16.0000 </r>
       <r>   -10.1275     0.0000    16.0000 </r>
       <r>   -10.0327     0.0000    16.0000 </r>
       <r>    -9.9379     0.0000    16.0000 </r>
       <r>    -9.8431     0.0000    16.0000 </r>
       <r>    -9.7484     0.0000    16.0000 </r>
       <r>    -9.6536     0.0000    16.0000 </r>
       <r>    -9.5588     0.0000    16.0000 </r>
       <r>    -9.4640     0.0000    16.0000 </r>
       <r>    -9.3692     0.0000    16.0000 </r>
       <r>    -9.2745     0.0000    16.0000 </r>
       <r>    -9.1797     0.0000    16.0000 </r>
       <r>    -9.0849     0.0000    16.0000 </r>
       <r>    -8.9901     0.0000    16.0000 </r>
       <r>    -8.8953     0.0000    16.0000 </r>
       <r>    -8.8006     0.0000    16.0000 </r>
       <r>    -8.7058     0.0000    16.0000 </r>
       <r>    -8.6110     0.0000    16.0000 </r>
       <r>    -8.5162     0.0000    16.0000 </r>
       <r>    -8.4215     0.0000    16.0000 </r>
       <r>    -8.3267     0.0000    16.0000 </r>
       <r>    -8.2319     0.0000    16.0000 </r>
       <r>    -8.1371     0.0000    16.0000 </r>
       <r>    -8.0423     0.0000    16.0000 </r>
       <r>    -7.9476     0.0000    16.0000 </r>
       <r>    -7.8528     0.0000    16.0000 </r>
       <r>    -7.7580     0.0000    16.0000 </r>
       <r>    -7.6632     0.0000    16.0000 </r>
       <r>    -7.5684     0.0000    16.0000 </r>
       <r>    -7.4737     0.0000    16.0000 </r>
       <r>    -7.3789     0.0000    16.0000 </r>
       <r>    -7.2841     0.0000    16.0000 </r>
       <r>    -7.1893     0.0000    16.0000 </r>
       <r>    -7.0946     0.0000    16.0000 </r>
       <r>    -6.9998     0.0000    16.0000 </r>
       <r>    -6.9050     0.0000    16.0000 </r>
       <r>    -6.8102     0.0000    16.0000 </r>
       <r>    -6.7154     0.0000    16.0000 </r>
       <r>    -6.6207     0.0000    16.0000 </r>
       <r>    -6.5259     0.0000    16.0000 </r>
       <r>    -6.4311     0.0000    16.0000 </r>
       <r>    -6.3363     0.0000    16.0000 </r>
       <r>    -6.2415     0.0000    16.0000 </r>
       <r>    -6.1468     0.0000    16.0000 </r>
       <r>    -6.0520     0.0000    16.0000 </r>
       <r>    -5.9572     0.0000    16.0000 </r>
       <r>    -5.8624     0.0000    16.0000 </r>
       <r>    -5.7677     0.0000    16.0000 </r>
       <r>    -5.6729     0.0000    16.0000 </r>
       <r>    -5.5781     0.0000    16.0000 </r>
       <r>    -5.4833     0.0000    16.0000 </r>
       <r>    -5.3885     0.0000    16.0000 </r>
       <r>    -5.2938     0.0000    16.0000 </r>
       <r>    -5.1990     0.0000    16.0000 </r>
       <r>    -5.1042     0.0000    16.0000 </r>
       <r>    -5.0094     0.0000    16.0000 </r>
       <r>    -4.9146     0.0000    16.0000 </r>
       <r>    -4.8199     0.0000    16.0000 </r>
       <r>    -4.7251     0.0000    16.0000 </r>
       <r>    -4.6303     0.0000    16.0000 </r>
       <r>    -4.5355     0.0000    16.0000 </r>
       <r>    -4.4408     0.0000    16.0000 </r>
       <r>    -4.3460     0.0000    16.0000 </r>
       <r>    -4.2512     0.0000    16.0000 </r>
       <r>    -4.1564     0.0000    16.0000 </r>
       <r>    -4.0616     0.0000    16.0000 </r>
       <r>    -3.9669     0.0000    16.0000 </r>
       <r>    -3.8721     0.0000    16.0000 </r>
       <r>    -3.7773     0.0000    16.0000 </r>
       <r>    -3.6825     0.0000    16.0000 </r>
       <r>    -3.5877     0.0000    16.0000 </r>
       <r>    -3.4930     0.0000    16.0000 </r>
       <r>    -3.3982     0.0000    16.0000 </r>
       <r>    -3.3034     0.0000    16.0000 </r>
       <r>    -3.2086     0.0000    16.0000 </r>
       <r>    -3.1139     0.0000    16.0000 </r>
       <r>    -3.0191     0.0000    16.0000 </r>
       <r>    -2.9243     0.0000    16.0000 </r>
       <r>    -2.8295     0.0000    16.0000 </r>
       <r>    -2.7347     0.0000    16.0000 </r>
       <r>    -2.6400     0.0000    16.0000 </r>
       <r>    -2.5452     0.0000    16.0000 </r>
       <r>    -2.4504     0.0000    16.0000 </r>
       <r>    -2.3556     0.0000    16.0000 </r>
       <r>    -2.2608     0.0000    16.0000 </r>
       <r>    -2.1661     0.0005    16.0000 </r>
       <r>    -2.0713     0.1277    16.0121 </r>
       <r>    -1.9765     0.4644    16.0562 </r>
       <r>    -1.8817     1.7969    16.2265 </r>
       <r>    -1.7870     3.2602    16.5355 </r>
       <r>    -1.6922     2.4498    16.7676 </r>
       <r>    -1.5974     2.2221    16.9783 </r>
       <r>    -1.5026     4.5866    17.4130 </r>
       <r>    -1.4078     5.4695    17.9314 </r>
       <r>    -1.3131     7.8807    18.6783 </r>
       <r>    -1.2183     6.8315    19.3258 </r>
       <r>    -1.1235     7.4158    20.0286 </r>
       <r>    -1.0287    10.0664    20.9827 </r>
       <r>    -0.9339     4.7381    21.4318 </r>
       <r>    -0.8392    10.4227    22.4196 </r>
       <r>    -0.7444    14.2653    23.7717 </r>
       <r>    -0.6496    14.2744    25.1246 </r>
       <r>    -0.5548     3.8605    25.4905 </r>
       <r>    -0.4601     9.5014    26.3910 </r>
       <r>    -0.3653    10.3360    27.3706 </r>
       <r>    -0.2705     5.5545    27.8971 </r>
       <r>    -0.1757     8.9661    28.7469 </r>
       <r>    -0.0809     9.5519    29.6522 </r>
       <r>     0.0138    11.4360    30.7361 </r>
       <r>     0.1086     7.0849    31.4076 </r>
       <r>     0.2034     7.8263    32.1493 </r>
       <r>     0.2982    10.4251    33.1374 </r>
       <r>     0.3930    11.3928    34.2172 </r>
       <r>     0.4877     5.9531    34.7814 </r>
       <r>     0.5825     7.2708    35.4705 </r>
       <r>     0.6773     7.7330    36.2035 </r>
       <r>     0.7721     8.8984    37.0468 </r>
       <r>     0.8668     8.4610    37.8488 </r>
       <r>     0.9616     8.0575    38.6124 </r>
       <r>     1.0564     4.7601    39.0636 </r>
       <r>     1.1512     6.7522    39.7036 </r>
       <r>     1.2460     7.7129    40.4346 </r>
       <r>     1.3407     6.1731    41.0197 </r>
       <r>     1.4355    10.6968    42.0335 </r>
       <r>     1.5303    10.0647    42.9874 </r>
       <r>     1.6251    10.9909    44.0291 </r>
       <r>     1.7199     8.1991    44.8062 </r>
       <r>     1.8146     6.5866    45.4305 </r>
       <r>     1.9094    10.3639    46.4128 </r>
       <r>     2.0042    11.8897    47.5396 </r>
       <r>     2.0990    10.5360    48.5382 </r>
       <r>     2.1937    13.2601    49.7950 </r>
       <r>     2.2885    13.3839    51.0635 </r>
       <r>     2.3833    13.2488    52.3192 </r>
       <r>     2.4781     8.7221    53.1459 </r>
       <r>     2.5729     8.8735    53.9869 </r>
       <r>     2.6676     8.6454    54.8063 </r>
       <r>     2.7624    10.6533    55.8160 </r>
       <r>     2.8572     8.7737    56.6476 </r>
       <r>     2.9520    11.3834    57.7265 </r>
       <r>     3.0468    13.8082    59.0352 </r>
       <r>     3.1415     8.3609    59.8276 </r>
       <r>     3.2363     6.7807    60.4703 </r>
       <r>     3.3311     9.7959    61.3987 </r>
       <r>     3.4259     8.7258    62.2258 </r>
       <r>     3.5206     4.9437    62.6943 </r>
       <r>     3.6154     4.3666    63.1082 </r>
       <r>     3.7102     5.0679    63.5885 </r>
       <r>     3.8050     3.3980    63.9105 </r>
       <r>     3.8998     0.8855    63.9945 </r>
       <r>     3.9945     0.0583    64.0000 </r>
       <r>     4.0893     0.0000    64.0000 </r>
       <r>     4.1841     0.0000    64.0000 </r>
       <r>     4.2789     0.0000    64.0000 </r>
       <r>     4.3737     0.0000    64.0000 </r>
       <r>     4.4684     0.0000    64.0000 </r>
       <r>     4.5632     0.0000    64.0000 </r>
       <r>     4.6580     0.0000    64.0000 </r>
       <r>     4.7528     0.0000    64.0000 </r>
       <r>     4.8475     0.0000    64.0000 </r>
       <r>     4.9423     0.0000    64.0000 </r>
       <r>     5.0371     0.0000    64.0000 </r>
       <r>     5.1319     0.0000    64.0000 </r>
       <r>     5.2267     0.0000    64.0000 </r>
       <r>     5.3214     0.0000    64.0000 </r>
       <r>     5.4162     0.0000    64.0000 </r>
       <r>     5.5110     0.0000    64.0000 </r>
       <r>     5.6058     0.0000    64.0000 </r>
       <r>     5.7006     0.0000    64.0000 </r>
       <r>     5.7953     0.0000    64.0000 </r>
       <r>     5.8901     0.0000    64.0000 </r>
       <r>     5.9849     0.0000    64.0000 </r>
       <r>     6.0797     0.0000    64.0000 </r>
       <r>     6.1744     0.0000    64.0000 </r>
       <r>     6.2692     0.0000    64.0000 </r>
       <r>     6.3640     0.0000    64.0000 </r>
       <r>     6.4588     0.0000    64.0000 </r>
       <r>     6.5536     0.0000    64.0000 </r>
       <r>     6.6483     0.0000    64.0000 </r>
       <r>     6.7431     0.0000    64.0000 </r>
       <r>     6.8379     0.0000    64.0000 </r>
       <r>     6.9327     0.0000    64.0000 </r>
       <r>     7.0275     0.0000    64.0000 </r>
       <r>     7.1222     0.0000    64.0000 </r>
       <r>     7.2170     0.0000    64.0000 </r>
       <r>     7.3118     0.0000    64.0000 </r>
       <r>     7.4066     0.0000    64.0000 </r>
       <r>     7.5013     0.0000    64.0000 </r>
       <r>     7.5961     0.0000    64.0000 </r>
       <r>     7.6909     0.0000    64.0000 </r>
       <r>     7.7857     0.0000    64.0000 </r>
       <r>     7.8805     0.0000    64.0000 </r>
       <r>     7.9752     0.0637    64.0060 </r>
       <r>     8.0700     3.5210    64.3398 </r>
       <r>     8.1648     8.8660    65.1801 </r>
       <r>     8.2596     8.4695    65.9828 </r>
       <r>     8.3544     5.7656    66.5292 </r>
       <r>     8.4491     3.8047    66.8898 </r>
       <r>     8.5439     5.0720    67.3706 </r>
       <r>     8.6387     7.2250    68.0553 </r>
       <r>     8.7335    11.3352    69.1297 </r>
       <r>     8.8282    10.9094    70.1636 </r>
       <r>     8.9230     8.1852    70.9394 </r>
       <r>     9.0178     3.9638    71.3151 </r>
       <r>     9.1126     4.3726    71.7295 </r>
       <r>     9.2074     7.0084    72.3938 </r>
       <r>     9.3021    10.1068    73.3517 </r>
       <r>     9.3969     2.9000    73.6265 </r>
       <r>     9.4917     5.8386    74.1799 </r>
       <r>     9.5865    10.8418    75.2075 </r>
       <r>     9.6813     9.4688    76.1049 </r>
       <r>     9.7760    11.2594    77.1721 </r>
       <r>     9.8708     8.4874    77.9765 </r>
       <r>     9.9656     7.1981    78.6587 </r>
       <r>    10.0604     9.5665    79.5654 </r>
       <r>    10.1551     3.9930    79.9439 </r>
       <r>    10.2499     2.6355    80.1937 </r>
       <r>    10.3447     3.0941    80.4869 </r>
       <r>    10.4395     7.3000    81.1788 </r>
       <r>    10.5343     5.9804    81.7456 </r>
       <r>    10.6290     3.7426    82.1003 </r>
       <r>    10.7238     4.4657    82.5236 </r>
       <r>    10.8186     6.7186    83.1604 </r>
       <r>    10.9134     4.6407    83.6002 </r>
       <r>    11.0081     1.6932    83.7607 </r>
       <r>    11.1029     0.7818    83.8348 </r>
       <r>    11.1977     0.6370    83.8952 </r>
       <r>    11.2925     0.3795    83.9311 </r>
       <r>    11.3873     0.3919    83.9683 </r>
       <r>    11.4820     0.0594    83.9739 </r>
       <r>    11.5768     0.2609    83.9986 </r>
       <r>    11.6716     0.0145    84.0000 </r>
       <r>    11.7664     0.0000    84.0000 </r>
       <r>    11.8612     0.0000    84.0000 </r>
       <r>    11.9559     0.0000    84.0000 </r>
       <r>    12.0507     0.0000    84.0000 </r>
       <r>    12.1455     0.0000    84.0000 </r>
       <r>    12.2403     0.0000    84.0000 </r>
       <r>    12.3350     0.0000    84.0000 </r>
       <r>    12.4298     0.0000    84.0000 </r>
       <r>    12.5246     0.0000    84.0000 </r>
       <r>    12.6194     0.0000    84.0000 </r>
       <r>    12.7142     0.0000    84.0000 </r>
       <r>    12.8089     0.0000    84.0000 </r>
      </set>
     </set>
    </array>
   </total>
  </dos>
 </calculation>
 <structure name="finalpos" >
  <crystal>
   <varray name="basis" >
    <v>       5.07556800       0.00000000       0.00000000 </v>
    <v>       0.00000000       5.07556800       0.00000000 </v>
    <v>       0.00000000       0.00000000       5.07556800 </v>
   </varray>
   <i name="volume">    130.75368937 </i>
   <varray name="rec_basis" >
    <v>       0.19702228       0.00000000       0.00000000 </v>
    <v>       0.00000000       0.19702228       0.00000000 </v>
    <v>       0.00000000       0.00000000       0.19702228 </v>
   </varray>
  </crystal>
  <varray name="positions" >
   <v>       0.01661474       0.03610793       0.03188202 </v>
   <v>       0.01661474       0.53610793       0.46811798 </v>
   <v>       0.48338526       0.03610793       0.53188202 </v>
   <v>       0.48338526       0.53610793      -0.03188202 </v>
   <v>       0.21271233       0.28284515       0.73648846 </v>
   <v>       0.21271233       0.78284515       0.76351154 </v>
   <v>       0.28728767       0.78284515       0.26351154 </v>
   <v>       0.28728767       0.28284515       0.23648846 </v>
   <v>       0.81901879       0.18104691       0.36521597 </v>
   <v>       0.81901879       0.68104691       0.13478403 </v>
   <v>       0.68098121       0.68104691       0.63478403 </v>
   <v>       0.68098121       0.18104691       0.86521597 </v>
  </varray>
 </structure>
</modeling>
