MoSe2                                   
           1
     5.075568    0.000000    0.000000
     0.000000    5.075568    0.000000
     0.000000    0.000000    5.075568
   Hf   O 
   4   8
Direct configuration=     1
   0.00000000  0.00000000  0.00000000
   0.00000000  0.50000000  0.50000000
   0.50000000  0.00000000  0.50000000
   0.50000000  0.50000000  0.00000000
   0.25000000  0.30457759  0.73666153
   0.25000000  0.80457759  0.76333847
   0.25000000  0.80457759  0.26333847
   0.25000000  0.30457759  0.23666153
   0.75000000  0.19542241  0.36953478
   0.75000000  0.69542241  0.13046522
   0.75000000  0.69542241  0.63046522
   0.75000000  0.19542241  0.86953478
Direct configuration=     2
   0.03376882 -0.01288059  0.01559144
   0.03376882  0.48711941  0.48440856
   0.46623118 -0.01288059  0.51559144
   0.46623118  0.48711941 -0.01559144
   0.24983350  0.29524475  0.73172774
   0.24983350  0.79524475  0.76827226
   0.25016650  0.79524475  0.26827226
   0.25016650  0.29524475  0.23172774
   0.78050519  0.21763584  0.35270193
   0.78050519  0.71763584  0.14729807
   0.71949481  0.71763584  0.64729807
   0.71949481  0.21763584  0.85270193
Direct configuration=     3
   0.01855676 -0.00707819  0.00856786
   0.01855676  0.49292181  0.49143214
   0.48144324 -0.00707819  0.50856786
   0.48144324  0.49292181 -0.00856786
   0.24990851  0.29944897  0.73395030
   0.24990851  0.79944897  0.76604970
   0.25009149  0.79944897  0.26604970
   0.25009149  0.29944897  0.23395030
   0.76676332  0.20762921  0.36028473
   0.76676332  0.70762921  0.13971527
   0.73323668  0.70762921  0.63971527
   0.73323668  0.20762921  0.86028473
Direct configuration=     4
   0.01152408 -0.00116947  0.01405741
   0.01152408  0.49883053  0.48594259
   0.48847592 -0.00116947  0.51405741
   0.48847592  0.49883053 -0.01405741
   0.24912016  0.28791634  0.72980218
   0.24912016  0.78791634  0.77019782
   0.25087984  0.78791634  0.27019782
   0.25087984  0.28791634  0.22980218
   0.77626806  0.21325313  0.35509580
   0.77626806  0.71325313  0.14490420
   0.72373194  0.71325313  0.64490420
   0.72373194  0.21325313  0.85509580
Direct configuration=     5
   0.00589388  0.00356092  0.01845222
   0.00589388  0.50356092  0.48154778
   0.49410612  0.00356092  0.51845222
   0.49410612  0.50356092 -0.01845222
   0.24848904  0.27868358  0.72648130
   0.24848904  0.77868358  0.77351870
   0.25151096  0.77868358  0.27351870
   0.25151096  0.27868358  0.22648130
   0.78387733  0.21775550  0.35094165
   0.78387733  0.71775550  0.14905835
   0.71612267  0.71775550  0.64905835
   0.71612267  0.21775550  0.85094165
Direct configuration=     6
   0.01089488  0.01446283  0.02094673
   0.01089488  0.51446283  0.47905327
   0.48910512  0.01446283  0.52094673
   0.48910512  0.51446283 -0.02094673
   0.24377417  0.26895096  0.72005366
   0.24377417  0.76895096  0.77994634
   0.25622583  0.76895096  0.27994634
   0.25622583  0.26895096  0.22005366
   0.78667922  0.21658621  0.34297315
   0.78667922  0.71658621  0.15702685
   0.71332078  0.71658621  0.65702685
   0.71332078  0.21658621  0.84297315
Direct configuration=     7
   0.01246212  0.01787935  0.02172847
   0.01246212  0.51787935  0.47827153
   0.48753788  0.01787935  0.52172847
   0.48753788  0.51787935 -0.02172847
   0.24229660  0.26590088  0.71803932
   0.24229660  0.76590088  0.78196068
   0.25770340  0.76590088  0.28196068
   0.25770340  0.26590088  0.21803932
   0.78755729  0.21621977  0.34047593
   0.78755729  0.71621977  0.15952407
   0.71244271  0.71621977  0.65952407
   0.71244271  0.21621977  0.84047593
Direct configuration=     8
   0.00951657  0.02122337  0.02042854
   0.00951657  0.52122337  0.47957146
   0.49048343  0.02122337  0.52042854
   0.49048343  0.52122337 -0.02042854
   0.23567558  0.26540529  0.71715872
   0.23567558  0.76540529  0.78284128
   0.26432442  0.76540529  0.28284128
   0.26432442  0.26540529  0.21715872
   0.78667400  0.21337134  0.33752408
   0.78667400  0.71337134  0.16247592
   0.71332600  0.71337134  0.66247592
   0.71332600  0.21337134  0.83752408
Direct configuration=     9
   0.00796456  0.02298533  0.01974360
   0.00796456  0.52298533  0.48025640
   0.49203544  0.02298533  0.51974360
   0.49203544  0.52298533 -0.01974360
   0.23218699  0.26514416  0.71669473
   0.23218699  0.76514416  0.78330527
   0.26781301  0.76514416  0.28330527
   0.26781301  0.26514416  0.21669473
   0.78620860  0.21187051  0.33596876
   0.78620860  0.71187051  0.16403124
   0.71379140  0.71187051  0.66403124
   0.71379140  0.21187051  0.83596876
Direct configuration=    10
   0.00992227  0.02323163  0.01961174
   0.00992227  0.52323163  0.48038826
   0.49007773  0.02323163  0.51961174
   0.49007773  0.52323163 -0.01961174
   0.22818355  0.26569371  0.71664921
   0.22818355  0.76569371  0.78335079
   0.27181645  0.76569371  0.28335079
   0.27181645  0.26569371  0.21664921
   0.78808726  0.21107466  0.33390109
   0.78808726  0.71107466  0.16609891
   0.71191274  0.71107466  0.66609891
   0.71191274  0.21107466  0.83390109
Direct configuration=    11
   0.01035354  0.02328588  0.01958269
   0.01035354  0.52328588  0.48041731
   0.48964646  0.02328588  0.51958269
   0.48964646  0.52328588 -0.01958269
   0.22730162  0.26581478  0.71663918
   0.22730162  0.76581478  0.78336082
   0.27269838  0.76581478  0.28336082
   0.27269838  0.26581478  0.21663918
   0.78850112  0.21089934  0.33344559
   0.78850112  0.71089934  0.16655441
   0.71149888  0.71089934  0.66655441
   0.71149888  0.21089934  0.83344559
Direct configuration=    12
   0.00964650  0.02361695  0.02039973
   0.00964650  0.52361695  0.47960027
   0.49035350  0.02361695  0.52039973
   0.49035350  0.52361695 -0.02039973
   0.22568491  0.26593112  0.71754809
   0.22568491  0.76593112  0.78245191
   0.27431509  0.76593112  0.28245191
   0.27431509  0.26593112  0.21754809
   0.79104519  0.21045193  0.33302271
   0.79104519  0.71045193  0.16697729
   0.70895481  0.71045193  0.66697729
   0.70895481  0.21045193  0.83302271
Direct configuration=    13
   0.00921574  0.02381866  0.02089752
   0.00921574  0.52381866  0.47910248
   0.49078426  0.02381866  0.52089752
   0.49078426  0.52381866 -0.02089752
   0.22469992  0.26600200  0.71810185
   0.22469992  0.76600200  0.78189815
   0.27530008  0.76600200  0.28189815
   0.27530008  0.26600200  0.21810185
   0.79259519  0.21017934  0.33276507
   0.79259519  0.71017934  0.16723493
   0.70740481  0.71017934  0.66723493
   0.70740481  0.21017934  0.83276507
Direct configuration=    14
   0.01002991  0.02510646  0.02163975
   0.01002991  0.52510646  0.47836025
   0.48997009  0.02510646  0.52163975
   0.48997009  0.52510646 -0.02163975
   0.22386217  0.26584107  0.71934051
   0.22386217  0.76584107  0.78065949
   0.27613783  0.76584107  0.28065949
   0.27613783  0.26584107  0.21934051
   0.79447240  0.20905247  0.33367371
   0.79447240  0.70905247  0.16632629
   0.70552760  0.70905247  0.66632629
   0.70552760  0.20905247  0.83367371
Direct configuration=    15
   0.01177037  0.02785941  0.02322641
   0.01177037  0.52785941  0.47677359
   0.48822963  0.02785941  0.52322641
   0.48822963  0.52785941 -0.02322641
   0.22207129  0.26549704  0.72198839
   0.22207129  0.76549704  0.77801161
   0.27792871  0.76549704  0.27801161
   0.27792871  0.26549704  0.22198839
   0.79848534  0.20664356  0.33561612
   0.79848534  0.70664356  0.16438388
   0.70151466  0.70664356  0.66438388
   0.70151466  0.20664356  0.83561612
Direct configuration=    16
   0.01182377  0.02848133  0.02352088
   0.01182377  0.52848133  0.47647912
   0.48817623  0.02848133  0.52352088
   0.48817623  0.52848133 -0.02352088
   0.22139402  0.26578513  0.72282640
   0.22139402  0.76578513  0.77717360
   0.27860598  0.76578513  0.27717360
   0.27860598  0.26578513  0.22282640
   0.79925296  0.20573354  0.33675190
   0.79925296  0.70573354  0.16324810
   0.70074704  0.70573354  0.66324810
   0.70074704  0.20573354  0.83675190
Direct configuration=    17
   0.01198395  0.03034709  0.02440430
   0.01198395  0.53034709  0.47559570
   0.48801605  0.03034709  0.52440430
   0.48801605  0.53034709 -0.02440430
   0.21936220  0.26664943  0.72534040
   0.21936220  0.76664943  0.77465960
   0.28063780  0.76664943  0.27465960
   0.28063780  0.26664943  0.22534040
   0.80155582  0.20300349  0.34015924
   0.80155582  0.70300349  0.15984076
   0.69844418  0.70300349  0.65984076
   0.69844418  0.20300349  0.84015924
Direct configuration=    18
   0.01230430  0.03407860  0.02617115
   0.01230430  0.53407860  0.47382885
   0.48769570  0.03407860  0.52617115
   0.48769570  0.53407860 -0.02617115
   0.21529855  0.26837801  0.73036840
   0.21529855  0.76837801  0.76963160
   0.28470145  0.76837801  0.26963160
   0.28470145  0.26837801  0.23036840
   0.80616153  0.19754339  0.34697391
   0.80616153  0.69754339  0.15302609
   0.69383847  0.69754339  0.65302609
   0.69383847  0.19754339  0.84697391
Direct configuration=    19
   0.01243190  0.03556490  0.02687490
   0.01243190  0.53556490  0.47312510
   0.48756810  0.03556490  0.52687490
   0.48756810  0.53556490 -0.02687490
   0.21367996  0.26906652  0.73237109
   0.21367996  0.76906652  0.76762891
   0.28632004  0.76906652  0.26762891
   0.28632004  0.26906652  0.23237109
   0.80799603  0.19536859  0.34968825
   0.80799603  0.69536859  0.15031175
   0.69200397  0.69536859  0.65031175
   0.69200397  0.19536859  0.84968825
Direct configuration=    20
   0.01296118  0.03594801  0.02731674
   0.01296118  0.53594801  0.47268326
   0.48703882  0.03594801  0.52731674
   0.48703882  0.53594801 -0.02731674
   0.21293290  0.26982568  0.73323424
   0.21293290  0.76982568  0.76676576
   0.28706710  0.76982568  0.26676576
   0.28706710  0.26982568  0.23323424
   0.80906527  0.19422631  0.35125245
   0.80906527  0.69422631  0.14874755
   0.69093473  0.69422631  0.64874755
   0.69093473  0.19422631  0.85125245
Direct configuration=    21
   0.01454900  0.03709736  0.02864226
   0.01454900  0.53709736  0.47135774
   0.48545100  0.03709736  0.52864226
   0.48545100  0.53709736 -0.02864226
   0.21069170  0.27210316  0.73582367
   0.21069170  0.77210316  0.76417633
   0.28930830  0.77210316  0.26417633
   0.28930830  0.27210316  0.23582367
   0.81227302  0.19079948  0.35594502
   0.81227302  0.69079948  0.14405498
   0.68772698  0.69079948  0.64405498
   0.68772698  0.19079948  0.85594502
Direct configuration=    22
   0.01772464  0.03939604  0.03129331
   0.01772464  0.53939604  0.46870669
   0.48227536  0.03939604  0.53129331
   0.48227536  0.53939604 -0.03129331
   0.20620929  0.27665812  0.74100252
   0.20620929  0.77665812  0.75899748
   0.29379071  0.77665812  0.25899748
   0.29379071  0.27665812  0.24100252
   0.81868851  0.18394583  0.36533018
   0.81868851  0.68394583  0.13466982
   0.68131149  0.68394583  0.63466982
   0.68131149  0.18394583  0.86533018
Direct configuration=    23
   0.01614617  0.03825347  0.02997559
   0.01614617  0.53825347  0.47002441
   0.48385383  0.03825347  0.52997559
   0.48385383  0.53825347 -0.02997559
   0.20843730  0.27439405  0.73842834
   0.20843730  0.77439405  0.76157166
   0.29156270  0.77439405  0.26157166
   0.29156270  0.27439405  0.23842834
   0.81549965  0.18735249  0.36066522
   0.81549965  0.68735249  0.13933478
   0.68450035  0.68735249  0.63933478
   0.68450035  0.18735249  0.86066522
Direct configuration=    24
   0.01621415  0.03760721  0.03059317
   0.01621415  0.53760721  0.46940683
   0.48378585  0.03760721  0.53059317
   0.48378585  0.53760721 -0.03059317
   0.20868157  0.27568571  0.73837621
   0.20868157  0.77568571  0.76162379
   0.29131843  0.77568571  0.26162379
   0.29131843  0.27568571  0.23837621
   0.81633449  0.18670709  0.36139622
   0.81633449  0.68670709  0.13860378
   0.68366551  0.68670709  0.63860378
   0.68366551  0.18670709  0.86139622
Direct configuration=    25
   0.01641810  0.03566842  0.03244591
   0.01641810  0.53566842  0.46755409
   0.48358190  0.03566842  0.53244591
   0.48358190  0.53566842 -0.03244591
   0.20941438  0.27956068  0.73821982
   0.20941438  0.77956068  0.76178018
   0.29058562  0.77956068  0.26178018
   0.29058562  0.27956068  0.23821982
   0.81883902  0.18477090  0.36358919
   0.81883902  0.68477090  0.13641081
   0.68116098  0.68477090  0.63641081
   0.68116098  0.18477090  0.86358919
Direct configuration=    26
   0.01647875  0.03509186  0.03299688
   0.01647875  0.53509186  0.46700312
   0.48352125  0.03509186  0.53299688
   0.48352125  0.53509186 -0.03299688
   0.20963231  0.28071302  0.73817332
   0.20963231  0.78071302  0.76182668
   0.29036769  0.78071302  0.26182668
   0.29036769  0.28071302  0.23817332
   0.81958382  0.18419511  0.36424134
   0.81958382  0.68419511  0.13575866
   0.68041618  0.68419511  0.63575866
   0.68041618  0.18419511  0.86424134
Direct configuration=    27
   0.01675586  0.03529187  0.03290924
   0.01675586  0.53529187  0.46709076
   0.48324414  0.03529187  0.53290924
   0.48324414  0.53529187 -0.03290924
   0.21032343  0.28128489  0.73793051
   0.21032343  0.78128489  0.76206949
   0.28967657  0.78128489  0.26206949
   0.28967657  0.28128489  0.23793051
   0.81930027  0.18342324  0.36452727
   0.81930027  0.68342324  0.13547273
   0.68069973  0.68342324  0.63547273
   0.68069973  0.18342324  0.86452727
Direct configuration=    28
   0.01736521  0.03573165  0.03271654
   0.01736521  0.53573165  0.46728346
   0.48263479  0.03573165  0.53271654
   0.48263479  0.53573165 -0.03271654
   0.21184311  0.28254237  0.73739659
   0.21184311  0.78254237  0.76260341
   0.28815689  0.78254237  0.26260341
   0.28815689  0.28254237  0.23739659
   0.81867678  0.18172598  0.36515600
   0.81867678  0.68172598  0.13484400
   0.68132322  0.68172598  0.63484400
   0.68132322  0.18172598  0.86515600
Direct configuration=    29
   0.01653461  0.03600616  0.03253376
   0.01653461  0.53600616  0.46746624
   0.48346539  0.03600616  0.53253376
   0.48346539  0.53600616 -0.03253376
   0.21242108  0.28282805  0.73715078
   0.21242108  0.78282805  0.76284922
   0.28757892  0.78282805  0.26284922
   0.28757892  0.28282805  0.23715078
   0.81863922  0.18116579  0.36525885
   0.81863922  0.68116579  0.13474115
   0.68136078  0.68116579  0.63474115
   0.68136078  0.18116579  0.86525885
Direct configuration=    30
   0.01664509  0.03596965  0.03255807
   0.01664509  0.53596965  0.46744193
   0.48335491  0.03596965  0.53255807
   0.48335491  0.53596965 -0.03255807
   0.21234421  0.28279005  0.73718348
   0.21234421  0.78279005  0.76281652
   0.28765579  0.78279005  0.26281652
   0.28765579  0.28279005  0.23718348
   0.81864421  0.18124030  0.36524517
   0.81864421  0.68124030  0.13475483
   0.68135579  0.68124030  0.63475483
   0.68135579  0.18124030  0.86524517
Direct configuration=    31
   0.01665166  0.03603569  0.03231107
   0.01665166  0.53603569  0.46768893
   0.48334834  0.03603569  0.53231107
   0.48334834  0.53603569 -0.03231107
   0.21250834  0.28281369  0.73696830
   0.21250834  0.78281369  0.76303170
   0.28749166  0.78281369  0.26303170
   0.28749166  0.28281369  0.23696830
   0.81878744  0.18115062  0.36522200
   0.81878744  0.68115062  0.13477800
   0.68121256  0.68115062  0.63477800
   0.68121256  0.18115062  0.86522200
Direct configuration=    32
   0.01666083  0.03612798  0.03196591
   0.01666083  0.53612798  0.46803409
   0.48333917  0.03612798  0.53196591
   0.48333917  0.53612798 -0.03196591
   0.21273770  0.28284672  0.73666760
   0.21273770  0.78284672  0.76333240
   0.28726230  0.78284672  0.26333240
   0.28726230  0.28284672  0.23666760
   0.81898758  0.18102530  0.36518963
   0.81898758  0.68102530  0.13481037
   0.68101242  0.68102530  0.63481037
   0.68101242  0.18102530  0.86518963
Direct configuration=    33
   0.01666159  0.03613559  0.03193744
   0.01666159  0.53613559  0.46806256
   0.48333841  0.03613559  0.53193744
   0.48333841  0.53613559 -0.03193744
   0.21275662  0.28284945  0.73664280
   0.21275662  0.78284945  0.76335720
   0.28724338  0.78284945  0.26335720
   0.28724338  0.28284945  0.23664280
   0.81900409  0.18101496  0.36518696
   0.81900409  0.68101496  0.13481304
   0.68099591  0.68101496  0.63481304
   0.68099591  0.18101496  0.86518696
Direct configuration=    34
   0.01666310  0.03615082  0.03188051
   0.01666310  0.53615082  0.46811949
   0.48333690  0.03615082  0.53188051
   0.48333690  0.53615082 -0.03188051
   0.21279445  0.28285490  0.73659320
   0.21279445  0.78285490  0.76340680
   0.28720555  0.78285490  0.26340680
   0.28720555  0.28285490  0.23659320
   0.81903711  0.18099429  0.36518162
   0.81903711  0.68099429  0.13481838
   0.68096289  0.68099429  0.63481838
   0.68096289  0.18099429  0.86518162
Direct configuration=    35
   0.01666210  0.03614078  0.03191805
   0.01666210  0.53614078  0.46808195
   0.48333790  0.03614078  0.53191805
   0.48333790  0.53614078 -0.03191805
   0.21276950  0.28285130  0.73662591
   0.21276950  0.78285130  0.76337409
   0.28723050  0.78285130  0.26337409
   0.28723050  0.28285130  0.23662591
   0.81901533  0.18100792  0.36518515
   0.81901533  0.68100792  0.13481485
   0.68098467  0.68100792  0.63481485
   0.68098467  0.18100792  0.86518515
Direct configuration=    36
   0.01661474  0.03610793  0.03188202
   0.01661474  0.53610793  0.46811798
   0.48338526  0.03610793  0.53188202
   0.48338526  0.53610793 -0.03188202
   0.21271233  0.28284515  0.73648846
   0.21271233  0.78284515  0.76351154
   0.28728767  0.78284515  0.26351154
   0.28728767  0.28284515  0.23648846
   0.81901879  0.18104691  0.36521597
   0.81901879  0.68104691  0.13478403
   0.68098121  0.68104691  0.63478403
   0.68098121  0.18104691  0.86521597
