
.Version 9.4.1 of ABINIT 
.(MPI version, prepared for a x86_64_linux_intel2021.2 computer) 

.Copyright (C) 1998-2021 ABINIT group . 
 ABINIT comes with ABSOLUTELY NO WARRANTY.
 It is free software, and you are welcome to redistribute it
 under certain conditions (GNU General Public License,
 see ~abinit/COPYING or http://www.gnu.org/copyleft/gpl.txt).

 ABINIT is a project of the Universite Catholique de Louvain,
 Corning Inc. and other collaborators, see ~abinit/doc/developers/contributors.txt .
 Please read https://docs.abinit.org/theory/acknowledgments for suggested
 acknowledgments of the ABINIT effort.
 For more information, see https://www.abinit.org .

.Starting date : Tue 27 Jul 2021.
- ( at 13h52 )
  
- input  file    -> MODE2_19_21_22total
- output file    -> MODE2_19_21_22total.abo
- root for input  files -> i
- root for output files -> o
 
 
 Symmetries : space group Pc a 2_1 (# 29); Bravais oP (primitive ortho.)
================================================================================
 Values of the parameters that define the memory need of the present run
     intxc =       0    ionmov =       2      iscf =       7    lmnmax =       8
     lnmax =       8     mgfft =      45  mpssoang =       4    mqgrid =    3001
     natom =      12  nloc_mem =       1    nspden =       1   nspinor =       1
    nsppol =       1      nsym =       4    n1xccc =    2501    ntypat =       2
    occopt =       1   xclevel =       2
-    mband =          50        mffmem =           1         mkmem =           4
       mpw =        5280          nfft =       91125          nkpt =         112
================================================================================
P This job should need less than                      47.650 Mbytes of memory.
  Rough estimation (10% accuracy) of disk space for files :
_ WF disk file :    451.174 Mbytes ; DEN or POT disk file :      0.697 Mbytes.
================================================================================
 
--------------------------------------------------------------------------------
------------- Echo of variables that govern the present computation ------------
--------------------------------------------------------------------------------
-
- outvars: echo of selected default values                                      
-   iomode0 =  3 , fftalg0 =512 , wfoptalg0 =  0
-
- outvars: echo of global parameters not present in the input file              
-  max_nthreads =    0
-
 -outvars: echo values of preprocessed input variables --------
            acell      9.5914334888E+00  9.5914334888E+00  9.5914334888E+00 Bohr
              amu      1.78490000E+02  1.59994000E+01
          chkprim           0
             ecut      2.50000000E+01 Hartree
           ecutsm      5.00000000E-01 Hartree
-          fftalg         512
           ionmov           2
           istwfk        2    0    0    3    0    0    0    0    0    0
                         0    0    0    0    0    0    6    0    0    7
                         0    0    0    0    0    0    0    0    0    0
                         0    0    0    0    0    0    0    0    0    0
                         0    0    0    0    0    0    0    0    0    0
                       outvar_i_n : Printing only first  50 k-points.
              ixc          11
              kpt      0.00000000E+00  0.00000000E+00  0.00000000E+00
                       1.66666667E-01  0.00000000E+00  0.00000000E+00
                       3.33333333E-01  0.00000000E+00  0.00000000E+00
                       5.00000000E-01  0.00000000E+00  0.00000000E+00
                       0.00000000E+00  1.66666667E-01  0.00000000E+00
                       1.66666667E-01  1.66666667E-01  0.00000000E+00
                       3.33333333E-01  1.66666667E-01  0.00000000E+00
                       5.00000000E-01  1.66666667E-01  0.00000000E+00
                      -3.33333333E-01  1.66666667E-01  0.00000000E+00
                      -1.66666667E-01  1.66666667E-01  0.00000000E+00
                       0.00000000E+00  3.33333333E-01  0.00000000E+00
                       1.66666667E-01  3.33333333E-01  0.00000000E+00
                       3.33333333E-01  3.33333333E-01  0.00000000E+00
                       5.00000000E-01  3.33333333E-01  0.00000000E+00
                      -3.33333333E-01  3.33333333E-01  0.00000000E+00
                      -1.66666667E-01  3.33333333E-01  0.00000000E+00
                       0.00000000E+00  5.00000000E-01  0.00000000E+00
                       1.66666667E-01  5.00000000E-01  0.00000000E+00
                       3.33333333E-01  5.00000000E-01  0.00000000E+00
                       5.00000000E-01  5.00000000E-01  0.00000000E+00
                       0.00000000E+00  0.00000000E+00  1.66666667E-01
                       1.66666667E-01  0.00000000E+00  1.66666667E-01
                       3.33333333E-01  0.00000000E+00  1.66666667E-01
                       5.00000000E-01  0.00000000E+00  1.66666667E-01
                      -3.33333333E-01  0.00000000E+00  1.66666667E-01
                      -1.66666667E-01  0.00000000E+00  1.66666667E-01
                       0.00000000E+00  1.66666667E-01  1.66666667E-01
                       1.66666667E-01  1.66666667E-01  1.66666667E-01
                       3.33333333E-01  1.66666667E-01  1.66666667E-01
                       5.00000000E-01  1.66666667E-01  1.66666667E-01
                      -3.33333333E-01  1.66666667E-01  1.66666667E-01
                      -1.66666667E-01  1.66666667E-01  1.66666667E-01
                       0.00000000E+00  3.33333333E-01  1.66666667E-01
                       1.66666667E-01  3.33333333E-01  1.66666667E-01
                       3.33333333E-01  3.33333333E-01  1.66666667E-01
                       5.00000000E-01  3.33333333E-01  1.66666667E-01
                      -3.33333333E-01  3.33333333E-01  1.66666667E-01
                      -1.66666667E-01  3.33333333E-01  1.66666667E-01
                       0.00000000E+00  5.00000000E-01  1.66666667E-01
                       1.66666667E-01  5.00000000E-01  1.66666667E-01
                       3.33333333E-01  5.00000000E-01  1.66666667E-01
                       5.00000000E-01  5.00000000E-01  1.66666667E-01
                      -3.33333333E-01  5.00000000E-01  1.66666667E-01
                      -1.66666667E-01  5.00000000E-01  1.66666667E-01
                       0.00000000E+00 -3.33333333E-01  1.66666667E-01
                       1.66666667E-01 -3.33333333E-01  1.66666667E-01
                       3.33333333E-01 -3.33333333E-01  1.66666667E-01
                       5.00000000E-01 -3.33333333E-01  1.66666667E-01
                      -3.33333333E-01 -3.33333333E-01  1.66666667E-01
                      -1.66666667E-01 -3.33333333E-01  1.66666667E-01
                       outvar_i_n : Printing only first  50 k-points.
           kptopt           2
         kptrlatt        6    0    0      0    6    0      0    0    6
          kptrlen      5.75486009E+01
P           mkmem           4
            natom          12
            nband          50
            ngfft          45      45      45
             nkpt         112
            nstep         100
             nsym           4
            ntime        1000
           ntypat           2
              occ      2.000000  2.000000  2.000000  2.000000  2.000000  2.000000
                       2.000000  2.000000  2.000000  2.000000  2.000000  2.000000
                       2.000000  2.000000  2.000000  2.000000  2.000000  2.000000
                       2.000000  2.000000  2.000000  2.000000  2.000000  2.000000
                       2.000000  2.000000  2.000000  2.000000  2.000000  2.000000
                       2.000000  2.000000  2.000000  2.000000  2.000000  2.000000
                       2.000000  2.000000  2.000000  2.000000  2.000000  2.000000
                       2.000000  2.000000  2.000000  2.000000  2.000000  2.000000
                       0.000000  0.000000
        pawecutdg      2.50000000E+01 Hartree
         pawxcdev           0
          spgroup          29
           symrel      1  0  0   0  1  0   0  0  1      -1  0  0   0  1  0   0  0 -1
                       1  0  0   0  1  0   0  0 -1      -1  0  0   0  1  0   0  0  1
            tnons      0.0000000  0.0000000  0.0000000     0.5000000  0.5000000  0.0000000
                       0.0000000  0.5000000  0.5000000     0.5000000  0.0000000  0.5000000
           toldfe      1.00000000E-10 Hartree
           tsmear      4.00000000E-02 Hartree
            typat      1  1  1  1  2  2  2  2  2  2  2  2
              wtk        0.00463    0.00926    0.00926    0.00463    0.00926    0.00926
                         0.00926    0.00926    0.00926    0.00926    0.00926    0.00926
                         0.00926    0.00926    0.00926    0.00926    0.00463    0.00926
                         0.00926    0.00463    0.00926    0.00926    0.00926    0.00926
                         0.00926    0.00926    0.00926    0.00926    0.00926    0.00926
                         0.00926    0.00926    0.00926    0.00926    0.00926    0.00926
                         0.00926    0.00926    0.00926    0.00926    0.00926    0.00926
                         0.00926    0.00926    0.00926    0.00926    0.00926    0.00926
                         0.00926    0.00926
                       outvars : Printing only first  50 k-points.
           xangst      0.0000000000E+00  0.0000000000E+00  0.0000000000E+00
                       0.0000000000E+00  2.5377840000E+00  2.5377840000E+00
                       2.5377840000E+00  0.0000000000E+00  2.5377840000E+00
                       2.5377840000E+00  2.5377840000E+00  0.0000000000E+00
                       9.8086488527E-01  1.5459042693E+00  3.7389756885E+00
                       9.8086488527E-01  4.0836882693E+00  3.8743763115E+00
                       1.5569191147E+00  4.0836882693E+00  1.3365923115E+00
                       1.5569191147E+00  1.5459042693E+00  1.2011916885E+00
                       4.0947031147E+00  9.9187973068E-01  1.8755989043E+00
                       4.0947031147E+00  3.5296637307E+00  6.6218509574E-01
                       3.5186488853E+00  3.5296637307E+00  3.1999690957E+00
                       3.5186488853E+00  9.9187973068E-01  4.4133829043E+00
            xcart      0.0000000000E+00  0.0000000000E+00  0.0000000000E+00
                       0.0000000000E+00  4.7957167444E+00  4.7957167444E+00
                       4.7957167444E+00  0.0000000000E+00  4.7957167444E+00
                       4.7957167444E+00  4.7957167444E+00  0.0000000000E+00
                       1.8535660065E+00  2.9213356967E+00  7.0656400688E+00
                       1.8535660065E+00  7.7170524411E+00  7.3215101645E+00
                       2.9421507379E+00  7.7170524411E+00  2.5257934201E+00
                       2.9421507379E+00  2.9213356967E+00  2.2699233244E+00
                       7.7378674823E+00  1.8743810477E+00  3.5443682642E+00
                       7.7378674823E+00  6.6700977922E+00  1.2513484802E+00
                       6.6492827509E+00  6.6700977922E+00  6.0470652247E+00
                       6.6492827509E+00  1.8743810477E+00  8.3400850086E+00
             xred      0.0000000000E+00  0.0000000000E+00  0.0000000000E+00
                       0.0000000000E+00  5.0000000000E-01  5.0000000000E-01
                       5.0000000000E-01  0.0000000000E+00  5.0000000000E-01
                       5.0000000000E-01  5.0000000000E-01  0.0000000000E+00
                       1.9325224000E-01  3.0457759000E-01  7.3666153000E-01
                       1.9325224000E-01  8.0457759000E-01  7.6333847000E-01
                       3.0674776000E-01  8.0457759000E-01  2.6333847000E-01
                       3.0674776000E-01  3.0457759000E-01  2.3666153000E-01
                       8.0674776000E-01  1.9542241000E-01  3.6953478000E-01
                       8.0674776000E-01  6.9542241000E-01  1.3046522000E-01
                       6.9325224000E-01  6.9542241000E-01  6.3046522000E-01
                       6.9325224000E-01  1.9542241000E-01  8.6953478000E-01
            znucl       72.00000    8.00000
 
================================================================================
 
 chkinp: Checking input parameters for consistency.
 
================================================================================
== DATASET  1 ==================================================================
-   mpi_nproc: 36, omp_nthreads: -1 (-1 if OMP is not activated)
-    --> not optimal distribution: autoparal keyword recommended in input file <--
 

--- !DatasetInfo
iteration_state: {dtset: 1, }
dimensions: {natom: 12, nkpt: 112, mband: 50, nsppol: 1, nspinor: 1, nspden: 1, mpw: 5280, }
cutoff_energies: {ecut:  25.0, pawecutdg:  25.0, }
electrons: {nelect:   9.60000000E+01, charge:   0.00000000E+00, occopt:   1.00000000E+00, tsmear:   4.00000000E-02, }
meta: {optdriver: 0, ionmov: 2, optcell: 0, iscf: 7, paral_kgb: 0, }
...

 Exchange-correlation functional for the present dataset will be:
  GGA: Perdew-Burke-Ernzerhof functional - ixc=11
 Citation for XC functional:
  J.P.Perdew, K.Burke, M.Ernzerhof, PRL 77, 3865 (1996)
 
 Real(R)+Recip(G) space primitive vectors, cartesian coordinates (Bohr,Bohr^-1):
 R(1)=  9.5914335  0.0000000  0.0000000  G(1)=  0.1042597  0.0000000  0.0000000
 R(2)=  0.0000000  9.5914335  0.0000000  G(2)=  0.0000000  0.1042597  0.0000000
 R(3)=  0.0000000  0.0000000  9.5914335  G(3)=  0.0000000  0.0000000  0.1042597
 Unit cell volume ucvol=  8.8236964E+02 bohr^3
 Angles (23,13,12)=  9.00000000E+01  9.00000000E+01  9.00000000E+01 degrees
 
 getcut: wavevector=  0.0000  0.0000  0.0000  ngfft=  45  45  45
         ecut(hartree)=     25.000   => boxcut(ratio)=   2.03814
 
--- Pseudopotential description ------------------------------------------------
- pspini: atom type   1  psp file is /workspace/jiahaoz/PACKAGE_INSTALL/abinit-9.4.1/pbe_s_sr/Hf.psp8
- pspatm: opening atomic psp file    /workspace/jiahaoz/PACKAGE_INSTALL/abinit-9.4.1/pbe_s_sr/Hf.psp8
- Hf    ONCVPSP  r_core=  1.72  1.72  1.72  2.43
- 72.00000  12.00000    160625                znucl, zion, pspdat
    8   11    3    4       600   0.00000      pspcod,pspxc,lmax,lloc,mmax,r2well
    5.99000000000000    5.40000000000000    0.00000000000000   rchrg,fchrg,qchrg
     nproj     2     2     2     2
     extension_switch     1
  pspatm : epsatm=   21.98649506
         --- l  ekb(1:nproj) -->
             0    5.812335   -0.521211
             1   -3.038329    2.466565
             2    2.060039    0.471534
             3    9.947446    0.353012
 pspatm: atomic psp has been read  and splines computed
 
- pspini: atom type   2  psp file is /workspace/jiahaoz/PACKAGE_INSTALL/abinit-9.4.1/pbe_s_sr/O.psp8
- pspatm: opening atomic psp file    /workspace/jiahaoz/PACKAGE_INSTALL/abinit-9.4.1/pbe_s_sr/O.psp8
- O     ONCVPSP  r_core=  1.36  1.46  1.26
-  8.00000   6.00000    151103                znucl, zion, pspdat
    8   11    2    4       600   0.00000      pspcod,pspxc,lmax,lloc,mmax,r2well
    5.99000000000000    4.00000000000000    0.00000000000000   rchrg,fchrg,qchrg
     nproj     2     2     1
     extension_switch     1
  pspatm : epsatm=    6.19401560
         --- l  ekb(1:nproj) -->
             0    5.257212    0.704241
             1   -5.135443   -1.451781
             2   -4.371486
 pspatm: atomic psp has been read  and splines computed
 
   1.31998181E+04                                ecore*ucvol(ha*bohr**3)
--------------------------------------------------------------------------------
 
_setup2: Arith. and geom. avg. npw (full set) are    5268.875    5268.869
 
================================================================================
 
=== [ionmov= 2] Broyden-Fletcher-Goldfard-Shanno method (forces)            
================================================================================
 
--- Iteration: (   1/1000) Internal Cycle: (1/1)
--------------------------------------------------------------------------------
 
---SELF-CONSISTENT-FIELD CONVERGENCE--------------------------------------------

--- !BeginCycle
iteration_state: {dtset: 1, itime: 1, icycle: 1, }
solver: {iscf: 7, nstep: 100, nline: 4, wfoptalg: 0, }
tolerances: {toldfe: 1.00E-10, }
...
 
     iter   Etot(hartree)      deltaE(h)  residm     vres2
 ETOT  1  -357.45918645923    -3.575E+02 3.220E-01 1.285E+03
 ETOT  2  -357.42950308875     2.968E-02 3.165E-02 1.527E+03
 ETOT  3  -358.50409006353    -1.075E+00 8.439E-03 3.411E+01
 ETOT  4  -358.52338387477    -1.929E-02 7.895E-03 1.719E+00
 ETOT  5  -358.52405709948    -6.732E-04 2.112E-03 5.771E-01
 ETOT  6  -358.52426325095    -2.062E-04 4.762E-03 5.561E-03
 ETOT  7  -358.52426545410    -2.203E-06 1.651E-03 2.756E-04
 ETOT  8  -358.52426554709    -9.299E-08 2.342E-03 1.178E-05
 ETOT  9  -358.52426555287    -5.785E-09 7.972E-04 7.708E-07
 ETOT 10  -358.52426555306    -1.912E-10 1.499E-03 4.010E-08
 ETOT 11  -358.52426555307    -4.718E-12 5.167E-04 2.447E-09
 ETOT 12  -358.52426555307     1.648E-12 1.079E-03 1.620E-10
 
 At SCF step   12, etot is converged : 
  for the second time, diff in etot=  1.648E-12 < toldfe=  1.000E-10
 
 Cartesian components of stress tensor (hartree/bohr^3)
  sigma(1 1)= -8.16904591E-04  sigma(3 2)=  0.00000000E+00
  sigma(2 2)= -9.36060033E-04  sigma(3 1)=  0.00000000E+00
  sigma(3 3)= -1.09812131E-03  sigma(2 1)=  0.00000000E+00
 

--- !ResultsGS
iteration_state: {dtset: 1, itime: 1, icycle: 1, }
comment   : Summary of ground state results
lattice_vectors:
- [  9.5914335,   0.0000000,   0.0000000, ]
- [  0.0000000,   9.5914335,   0.0000000, ]
- [  0.0000000,   0.0000000,   9.5914335, ]
lattice_lengths: [   9.59143,    9.59143,    9.59143, ]
lattice_angles: [ 90.000,  90.000,  90.000, ] # degrees, (23, 13, 12)
lattice_volume:   8.8236964E+02
convergence: {deltae:  1.648E-12, res2:  1.620E-10, residm:  1.079E-03, diffor: null, }
etotal    :  -3.58524266E+02
entropy   :   0.00000000E+00
fermie    :   2.76572946E-01
cartesian_stress_tensor: # hartree/bohr^3
- [ -8.16904591E-04,   0.00000000E+00,   0.00000000E+00, ]
- [  0.00000000E+00,  -9.36060033E-04,   0.00000000E+00, ]
- [  0.00000000E+00,   0.00000000E+00,  -1.09812131E-03, ]
pressure_GPa:   2.7961E+01
xred      :
- [  0.0000E+00,   0.0000E+00,   0.0000E+00, Hf]
- [  0.0000E+00,   5.0000E-01,   5.0000E-01, Hf]
- [  5.0000E-01,   0.0000E+00,   5.0000E-01, Hf]
- [  5.0000E-01,   5.0000E-01,   0.0000E+00, Hf]
- [  1.9325E-01,   3.0458E-01,   7.3666E-01,  O]
- [  1.9325E-01,   8.0458E-01,   7.6334E-01,  O]
- [  3.0675E-01,   8.0458E-01,   2.6334E-01,  O]
- [  3.0675E-01,   3.0458E-01,   2.3666E-01,  O]
- [  8.0675E-01,   1.9542E-01,   3.6953E-01,  O]
- [  8.0675E-01,   6.9542E-01,   1.3047E-01,  O]
- [  6.9325E-01,   6.9542E-01,   6.3047E-01,  O]
- [  6.9325E-01,   1.9542E-01,   8.6953E-01,  O]
cartesian_forces: # hartree/bohr
- [  1.82887263E-02,   5.45321252E-02,   5.70792276E-02, ]
- [  1.82887263E-02,   5.45321252E-02,  -5.70792276E-02, ]
- [ -1.82887263E-02,   5.45321252E-02,   5.70792276E-02, ]
- [ -1.82887263E-02,   5.45321252E-02,  -5.70792276E-02, ]
- [  4.99645797E-02,  -4.16418172E-02,   4.17376566E-02, ]
- [  4.99645797E-02,  -4.16418172E-02,  -4.17376566E-02, ]
- [ -4.99645797E-02,  -4.16418172E-02,  -4.17376566E-02, ]
- [ -4.99645797E-02,  -4.16418172E-02,   4.17376566E-02, ]
- [  1.09881207E-02,  -1.28903080E-02,  -2.36361715E-02, ]
- [  1.09881207E-02,  -1.28903080E-02,   2.36361715E-02, ]
- [ -1.09881207E-02,  -1.28903080E-02,   2.36361715E-02, ]
- [ -1.09881207E-02,  -1.28903080E-02,  -2.36361715E-02, ]
force_length_stats: {min:   2.90786424E-02, max:   8.10325145E-02, mean:   6.24644387E-02, }
...

 Integrated electronic density in atomic spheres:
 ------------------------------------------------
 Atom  Sphere_radius  Integrated_density
    1        2.00000          8.41515943
    2        2.00000          8.44061473
    3        2.00000          8.44067117
    4        2.00000          8.44076062
    5        2.00000          6.45050173
    6        2.00000          6.44578896
    7        2.00000          6.44943201
    8        2.00000          6.44841182
    9        2.00000          6.43490214
   10        2.00000          6.44388125
   11        2.00000          6.43622710
   12        2.00000          6.44088610
 
---OUTPUT-----------------------------------------------------------------------
 
 Cartesian coordinates (xcart) [bohr]
  0.00000000000000E+00  0.00000000000000E+00  0.00000000000000E+00
  0.00000000000000E+00  4.79571674441906E+00  4.79571674441906E+00
  4.79571674441906E+00  0.00000000000000E+00  4.79571674441906E+00
  4.79571674441906E+00  4.79571674441906E+00  0.00000000000000E+00
  1.85356600652898E+00  2.92133569667561E+00  7.06564006878073E+00
  1.85356600652898E+00  7.71705244109466E+00  7.32151016447645E+00
  2.94215073789008E+00  7.71705244109466E+00  2.52579342005739E+00
  2.94215073789008E+00  2.92133569667561E+00  2.26992332436167E+00
  7.73786748230914E+00  1.87438104774345E+00  3.54436826418243E+00
  7.73786748230914E+00  6.67009779216251E+00  1.25134848023663E+00
  6.64928275094804E+00  6.67009779216251E+00  6.04706522465569E+00
  6.64928275094804E+00  1.87438104774345E+00  8.34008500860148E+00
 Reduced coordinates (xred)
  0.00000000000000E+00  0.00000000000000E+00  0.00000000000000E+00
  0.00000000000000E+00  5.00000000000000E-01  5.00000000000000E-01
  5.00000000000000E-01  0.00000000000000E+00  5.00000000000000E-01
  5.00000000000000E-01  5.00000000000000E-01  0.00000000000000E+00
  1.93252240000000E-01  3.04577590000000E-01  7.36661530000000E-01
  1.93252240000000E-01  8.04577590000000E-01  7.63338470000000E-01
  3.06747760000000E-01  8.04577590000000E-01  2.63338470000000E-01
  3.06747760000000E-01  3.04577590000000E-01  2.36661530000000E-01
  8.06747760000000E-01  1.95422410000000E-01  3.69534780000000E-01
  8.06747760000000E-01  6.95422410000000E-01  1.30465220000000E-01
  6.93252240000000E-01  6.95422410000000E-01  6.30465220000000E-01
  6.93252240000000E-01  1.95422410000000E-01  8.69534780000000E-01
 Cartesian forces (fcart) [Ha/bohr]; max,rms= 5.70792E-02 3.85636E-02 (free atoms)
  1.82887263068425E-02  5.45321252211106E-02  5.70792275875086E-02
  1.82887263068425E-02  5.45321252211106E-02 -5.70792275875086E-02
 -1.82887263068425E-02  5.45321252211106E-02  5.70792275875086E-02
 -1.82887263068425E-02  5.45321252211106E-02 -5.70792275875086E-02
  4.99645797271590E-02 -4.16418172207688E-02  4.17376565661275E-02
  4.99645797271590E-02 -4.16418172207688E-02 -4.17376565661275E-02
 -4.99645797271590E-02 -4.16418172207688E-02 -4.17376565661275E-02
 -4.99645797271590E-02 -4.16418172207688E-02  4.17376565661275E-02
  1.09881207370462E-02 -1.28903080003419E-02 -2.36361715137164E-02
  1.09881207370462E-02 -1.28903080003419E-02  2.36361715137164E-02
 -1.09881207370462E-02 -1.28903080003419E-02  2.36361715137164E-02
 -1.09881207370462E-02 -1.28903080003419E-02 -2.36361715137164E-02
 Gradient of E wrt nuclear positions in reduced coordinates (gred)
 -1.75415101967644E-01 -5.23041252063274E-01 -5.47471614999842E-01
 -1.75415101967644E-01 -5.23041252063274E-01  5.47471614999842E-01
  1.75415101967644E-01 -5.23041252063274E-01 -5.47471614999842E-01
  1.75415101967644E-01 -5.23041252063274E-01  5.47471614999842E-01
 -4.79231943250795E-01  3.99404720227357E-01 -4.00323956933980E-01
 -4.79231943250795E-01  3.99404720227357E-01  4.00323956933980E-01
  4.79231943250795E-01  3.99404720227357E-01  4.00323956933980E-01
  4.79231943250795E-01  3.99404720227357E-01 -4.00323956933980E-01
 -1.05391829216702E-01  1.23636531835917E-01  2.26704767004581E-01
 -1.05391829216702E-01  1.23636531835917E-01 -2.26704767004581E-01
  1.05391829216702E-01  1.23636531835917E-01 -2.26704767004581E-01
  1.05391829216702E-01  1.23636531835917E-01  2.26704767004581E-01
 Total energy (etotal) [Ha]= -3.58524265553066E+02
 
--- Iteration: (   2/1000) Internal Cycle: (1/1)
--------------------------------------------------------------------------------
 
---SELF-CONSISTENT-FIELD CONVERGENCE--------------------------------------------

--- !BeginCycle
iteration_state: {dtset: 1, itime: 2, icycle: 1, }
solver: {iscf: 7, nstep: 100, nline: 4, wfoptalg: 0, }
tolerances: {toldfe: 1.00E-10, }
...
 
     iter   Etot(hartree)      deltaE(h)  residm     vres2
 ETOT  1  -358.45071779968    -3.585E+02 4.966E-03 2.939E+02
 ETOT  2  -358.54189886355    -9.118E-02 1.493E-03 3.738E+01
 ETOT  3  -358.55544881693    -1.355E-02 3.713E-04 1.856E+01
 ETOT  4  -358.56809624249    -1.265E-02 7.507E-04 1.813E-01
 ETOT  5  -358.56815376216    -5.752E-05 1.148E-04 2.177E-02
 ETOT  6  -358.56815543525    -1.673E-06 2.608E-04 5.754E-03
 ETOT  7  -358.56815782662    -2.391E-06 9.219E-05 9.866E-04
 ETOT  8  -358.56815810913    -2.825E-07 9.502E-05 2.532E-05
 ETOT  9  -358.56815811372    -4.585E-09 8.305E-05 1.925E-06
 ETOT 10  -358.56815811435    -6.332E-10 4.118E-05 6.061E-09
 ETOT 11  -358.56815811436    -5.230E-12 7.483E-05 4.240E-10
 ETOT 12  -358.56815811436    -6.821E-13 3.053E-05 3.753E-11
 
 At SCF step   12, etot is converged : 
  for the second time, diff in etot=  6.821E-13 < toldfe=  1.000E-10
 
 Cartesian components of stress tensor (hartree/bohr^3)
  sigma(1 1)= -6.05086638E-04  sigma(3 2)=  0.00000000E+00
  sigma(2 2)= -7.07195888E-04  sigma(3 1)=  0.00000000E+00
  sigma(3 3)= -8.62426592E-04  sigma(2 1)=  0.00000000E+00
 

--- !ResultsGS
iteration_state: {dtset: 1, itime: 2, icycle: 1, }
comment   : Summary of ground state results
lattice_vectors:
- [  9.5914335,   0.0000000,   0.0000000, ]
- [  0.0000000,   9.5914335,   0.0000000, ]
- [  0.0000000,   0.0000000,   9.5914335, ]
lattice_lengths: [   9.59143,    9.59143,    9.59143, ]
lattice_angles: [ 90.000,  90.000,  90.000, ] # degrees, (23, 13, 12)
lattice_volume:   8.8236964E+02
convergence: {deltae: -6.821E-13, res2:  3.753E-11, residm:  3.053E-05, diffor: null, }
etotal    :  -3.58568158E+02
entropy   :   0.00000000E+00
fermie    :   2.80017717E-01
cartesian_stress_tensor: # hartree/bohr^3
- [ -6.05086638E-04,   0.00000000E+00,   0.00000000E+00, ]
- [  0.00000000E+00,  -7.07195888E-04,   0.00000000E+00, ]
- [  0.00000000E+00,   0.00000000E+00,  -8.62426592E-04, ]
pressure_GPa:   2.1327E+01
xred      :
- [  1.9068E-03,   5.6855E-03,   5.9511E-03, Hf]
- [  1.9068E-03,   5.0569E-01,   4.9405E-01, Hf]
- [  4.9809E-01,   5.6855E-03,   5.0595E-01, Hf]
- [  4.9809E-01,   5.0569E-01,  -5.9511E-03, Hf]
- [  1.9846E-01,   3.0024E-01,   7.4101E-01,  O]
- [  1.9846E-01,   8.0024E-01,   7.5899E-01,  O]
- [  3.0154E-01,   8.0024E-01,   2.5899E-01,  O]
- [  3.0154E-01,   3.0024E-01,   2.4101E-01,  O]
- [  8.0789E-01,   1.9408E-01,   3.6707E-01,  O]
- [  8.0789E-01,   6.9408E-01,   1.3293E-01,  O]
- [  6.9211E-01,   6.9408E-01,   6.3293E-01,  O]
- [  6.9211E-01,   1.9408E-01,   8.6707E-01,  O]
cartesian_forces: # hartree/bohr
- [  2.98162613E-02,   3.85512455E-02,   3.57566891E-02, ]
- [  2.98162613E-02,   3.85512455E-02,  -3.57566891E-02, ]
- [ -2.98162613E-02,   3.85512455E-02,   3.57566891E-02, ]
- [ -2.98162613E-02,   3.85512455E-02,  -3.57566891E-02, ]
- [  3.04105790E-02,  -2.74828528E-02,   1.90577431E-02, ]
- [  3.04105790E-02,  -2.74828528E-02,  -1.90577431E-02, ]
- [ -3.04105790E-02,  -2.74828528E-02,  -1.90577431E-02, ]
- [ -3.04105790E-02,  -2.74828528E-02,   1.90577431E-02, ]
- [  9.72160255E-03,  -1.10683927E-02,  -1.80288802E-02, ]
- [  9.72160255E-03,  -1.10683927E-02,   1.80288802E-02, ]
- [ -9.72160255E-03,  -1.10683927E-02,   1.80288802E-02, ]
- [ -9.72160255E-03,  -1.10683927E-02,  -1.80288802E-02, ]
force_length_stats: {min:   2.32821690E-02, max:   6.04462471E-02, mean:   4.29771272E-02, }
...

 Integrated electronic density in atomic spheres:
 ------------------------------------------------
 Atom  Sphere_radius  Integrated_density
    1        2.00000          8.39568749
    2        2.00000          8.39309018
    3        2.00000          8.38699765
    4        2.00000          8.38936677
    5        2.00000          6.40542516
    6        2.00000          6.41515897
    7        2.00000          6.40766263
    8        2.00000          6.40343185
    9        2.00000          6.42013648
   10        2.00000          6.42469900
   11        2.00000          6.42831322
   12        2.00000          6.43258213
 
---OUTPUT-----------------------------------------------------------------------
 
 Cartesian coordinates (xcart) [bohr]
  1.82887263068425E-02  5.45321252211106E-02  5.70792275875086E-02
  1.82887263068425E-02  4.85024886964017E+00  4.73863751683155E+00
  4.77742801811222E+00  5.45321252211106E-02  4.85279597200657E+00
  4.77742801811222E+00  4.85024886964017E+00 -5.70792275875086E-02
  1.90353058625614E+00  2.87969387945484E+00  7.10737772534685E+00
  1.90353058625614E+00  7.67541062387390E+00  7.27977250791032E+00
  2.89218615816292E+00  7.67541062387390E+00  2.48405576349126E+00
  2.89218615816292E+00  2.87969387945484E+00  2.31166098092779E+00
  7.74885560304618E+00  1.86149073974311E+00  3.52073209266871E+00
  7.74885560304618E+00  6.65720748416217E+00  1.27498465175035E+00
  6.63829463021099E+00  6.65720748416217E+00  6.07070139616941E+00
  6.63829463021099E+00  1.86149073974311E+00  8.31644883708777E+00
 Reduced coordinates (xred)
  1.90677715986101E-03  5.68550314033575E-03  5.95106327473715E-03
  1.90677715986101E-03  5.05685503140336E-01  4.94048936725263E-01
  4.98093222840139E-01  5.68550314033575E-03  5.05951063274737E-01
  4.98093222840139E-01  5.05685503140336E-01 -5.95106327473715E-03
  1.98461532206979E-01  3.00236026534098E-01  7.41013085647516E-01
  1.98461532206979E-01  8.00236026534098E-01  7.58986914352484E-01
  3.01538467793021E-01  8.00236026534098E-01  2.58986914352484E-01
  3.01538467793021E-01  3.00236026534098E-01  2.41013085647516E-01
  8.07893378196679E-01  1.94078470325566E-01  3.67070479794903E-01
  8.07893378196679E-01  6.94078470325566E-01  1.32929520205097E-01
  6.92106621803321E-01  6.94078470325566E-01  6.32929520205097E-01
  6.92106621803321E-01  1.94078470325566E-01  8.67070479794903E-01
 Cartesian forces (fcart) [Ha/bohr]; max,rms= 3.85512E-02 2.63294E-02 (free atoms)
  2.98162613425541E-02  3.85512454775139E-02  3.57566891419569E-02
  2.98162613425541E-02  3.85512454775139E-02 -3.57566891419569E-02
 -2.98162613425541E-02  3.85512454775139E-02  3.57566891419569E-02
 -2.98162613425541E-02  3.85512454775139E-02 -3.57566891419569E-02
  3.04105789938478E-02 -2.74828527822457E-02  1.90577430793758E-02
  3.04105789938478E-02 -2.74828527822457E-02 -1.90577430793758E-02
 -3.04105789938478E-02 -2.74828527822457E-02 -1.90577430793758E-02
 -3.04105789938478E-02 -2.74828527822457E-02  1.90577430793758E-02
  9.72160255231086E-03 -1.10683926952682E-02 -1.80288801775955E-02
  9.72160255231087E-03 -1.10683926952682E-02  1.80288801775955E-02
 -9.72160255231087E-03 -1.10683926952682E-02  1.80288801775955E-02
 -9.72160255231087E-03 -1.10683926952682E-02 -1.80288801775955E-02
 Gradient of E wrt nuclear positions in reduced coordinates (gred)
 -2.85980687552923E-01 -3.69761706909446E-01 -3.42957905686140E-01
 -2.85980687552923E-01 -3.69761706909446E-01  3.42957905686140E-01
  2.85980687552923E-01 -3.69761706909446E-01 -3.42957905686140E-01
  2.85980687552923E-01 -3.69761706909446E-01  3.42957905686140E-01
 -2.91681045776549E-01  2.63599954544439E-01 -1.82791075193198E-01
 -2.91681045776549E-01  2.63599954544439E-01  1.82791075193198E-01
  2.91681045776549E-01  2.63599954544439E-01  1.82791075193198E-01
  2.91681045776549E-01  2.63599954544439E-01 -1.82791075193198E-01
 -9.32441042854085E-02  1.06161752365007E-01  1.72922805101639E-01
 -9.32441042854086E-02  1.06161752365007E-01 -1.72922805101639E-01
  9.32441042854086E-02  1.06161752365007E-01 -1.72922805101639E-01
  9.32441042854086E-02  1.06161752365007E-01  1.72922805101639E-01
 Total energy (etotal) [Ha]= -3.58568158114358E+02
 
 Difference of energy with previous step (new-old):
           Absolute (Ha)=-4.38926E-02
           Relative     =-1.22418E-04
 
--- Iteration: (   3/1000) Internal Cycle: (1/1)
--------------------------------------------------------------------------------
 
---SELF-CONSISTENT-FIELD CONVERGENCE--------------------------------------------

--- !BeginCycle
iteration_state: {dtset: 1, itime: 3, icycle: 1, }
solver: {iscf: 7, nstep: 100, nline: 4, wfoptalg: 0, }
tolerances: {toldfe: 1.00E-10, }
...
 
     iter   Etot(hartree)      deltaE(h)  residm     vres2
 ETOT  1  -358.05116056148    -3.581E+02 8.708E-03 1.333E+03
 ETOT  2  -358.40014424512    -3.490E-01 3.336E-03 3.635E+02
 ETOT  3  -358.53552724379    -1.354E-01 3.162E-03 1.498E+02
 ETOT  4  -358.62214160156    -8.661E-02 6.146E-04 7.388E-01
 ETOT  5  -358.62244066415    -2.991E-04 5.845E-04 1.526E-01
 ETOT  6  -358.62246799289    -2.733E-05 2.668E-04 6.821E-02
 ETOT  7  -358.62249119633    -2.320E-05 5.519E-04 1.919E-03
 ETOT  8  -358.62249230957    -1.113E-06 2.508E-04 1.773E-05
 ETOT  9  -358.62249231650    -6.926E-09 7.395E-04 3.521E-06
 ETOT 10  -358.62249231781    -1.314E-09 2.643E-04 3.153E-08
 ETOT 11  -358.62249231783    -1.199E-11 6.856E-04 4.007E-09
 ETOT 12  -358.62249231782     1.251E-12 1.826E-04 1.046E-10
 
 At SCF step   12, etot is converged : 
  for the second time, diff in etot=  1.251E-12 < toldfe=  1.000E-10
 
 Cartesian components of stress tensor (hartree/bohr^3)
  sigma(1 1)= -3.13948349E-04  sigma(3 2)=  0.00000000E+00
  sigma(2 2)= -3.56925519E-04  sigma(3 1)=  0.00000000E+00
  sigma(3 3)= -5.91275662E-04  sigma(2 1)=  0.00000000E+00
 

--- !ResultsGS
iteration_state: {dtset: 1, itime: 3, icycle: 1, }
comment   : Summary of ground state results
lattice_vectors:
- [  9.5914335,   0.0000000,   0.0000000, ]
- [  0.0000000,   9.5914335,   0.0000000, ]
- [  0.0000000,   0.0000000,   9.5914335, ]
lattice_lengths: [   9.59143,    9.59143,    9.59143, ]
lattice_angles: [ 90.000,  90.000,  90.000, ] # degrees, (23, 13, 12)
lattice_volume:   8.8236964E+02
convergence: {deltae:  1.251E-12, res2:  1.046E-10, residm:  1.826E-04, diffor: null, }
etotal    :  -3.58622492E+02
entropy   :   0.00000000E+00
fermie    :   2.80045423E-01
cartesian_stress_tensor: # hartree/bohr^3
- [ -3.13948349E-04,   0.00000000E+00,   0.00000000E+00, ]
- [  0.00000000E+00,  -3.56925519E-04,   0.00000000E+00, ]
- [  0.00000000E+00,   0.00000000E+00,  -5.91275662E-04, ]
pressure_GPa:   1.2378E+01
xred      :
- [  1.1548E-02,   1.9026E-02,   1.8508E-02, Hf]
- [  1.1548E-02,   5.1903E-01,   4.8149E-01, Hf]
- [  4.8845E-01,   1.9026E-02,   5.1851E-01, Hf]
- [  4.8845E-01,   5.1903E-01,  -1.8508E-02, Hf]
- [  2.0918E-01,   2.9065E-01,   7.4803E-01,  O]
- [  2.0918E-01,   7.9065E-01,   7.5197E-01,  O]
- [  2.9082E-01,   7.9065E-01,   2.5197E-01,  O]
- [  2.9082E-01,   2.9065E-01,   2.4803E-01,  O]
- [  8.1118E-01,   1.9033E-01,   3.6088E-01,  O]
- [  8.1118E-01,   6.9033E-01,   1.3912E-01,  O]
- [  6.8882E-01,   6.9033E-01,   6.3912E-01,  O]
- [  6.8882E-01,   1.9033E-01,   8.6088E-01,  O]
cartesian_forces: # hartree/bohr
- [  9.35833374E-03,   1.98058280E-02,   1.41534467E-02, ]
- [  9.35833374E-03,   1.98058280E-02,  -1.41534467E-02, ]
- [ -9.35833374E-03,   1.98058280E-02,   1.41534467E-02, ]
- [ -9.35833374E-03,   1.98058280E-02,  -1.41534467E-02, ]
- [  6.35319260E-03,  -1.26733045E-02,  -4.72806108E-03, ]
- [  6.35319260E-03,  -1.26733045E-02,   4.72806108E-03, ]
- [ -6.35319260E-03,  -1.26733045E-02,   4.72806108E-03, ]
- [ -6.35319260E-03,  -1.26733045E-02,  -4.72806108E-03, ]
- [  3.97242890E-03,  -7.13252350E-03,  -4.55141615E-03, ]
- [  3.97242890E-03,  -7.13252350E-03,   4.55141615E-03, ]
- [ -3.97242890E-03,  -7.13252350E-03,   4.55141615E-03, ]
- [ -3.97242890E-03,  -7.13252350E-03,  -4.55141615E-03, ]
force_length_stats: {min:   9.34711034E-03, max:   2.60800553E-02, mean:   1.67904681E-02, }
...

 Integrated electronic density in atomic spheres:
 ------------------------------------------------
 Atom  Sphere_radius  Integrated_density
    1        2.00000          8.33383573
    2        2.00000          8.32953446
    3        2.00000          8.33946901
    4        2.00000          8.33665747
    5        2.00000          6.38363716
    6        2.00000          6.38758418
    7        2.00000          6.38309614
    8        2.00000          6.38901947
    9        2.00000          6.37598078
   10        2.00000          6.37725945
   11        2.00000          6.38484223
   12        2.00000          6.37829058
 
---OUTPUT-----------------------------------------------------------------------
 
 Cartesian coordinates (xcart) [bohr]
  1.10757433006959E-01  1.82483345004175E-01  1.77521681360349E-01
  1.10757433006959E-01  4.97820008942323E+00  4.61819506305871E+00
  4.68495931141210E+00  1.82483345004175E-01  4.97323842577941E+00
  4.68495931141210E+00  4.97820008942323E+00 -1.77521681360349E-01
  2.00635098664224E+00  2.78772682654619E+00  7.17464646033440E+00
  2.00635098664224E+00  7.58344357096526E+00  7.21250377292277E+00
  2.78936575777682E+00  7.58344357096526E+00  2.41678702850372E+00
  2.78936575777682E+00  2.78772682654619E+00  2.37892971591534E+00
  7.78037057308406E+00  1.82550657286869E+00  3.46140156637162E+00
  7.78037057308406E+00  6.62122331728775E+00  1.33431517804744E+00
  6.60677966017311E+00  6.62122331728775E+00  6.13003192246649E+00
  6.60677966017311E+00  1.82550657286869E+00  8.25711831079068E+00
 Reduced coordinates (xred)
  1.15475369907795E-02  1.90256592214852E-02  1.85083576471585E-02
  1.15475369907795E-02  5.19025659221485E-01  4.81491642352842E-01
  4.88452463009220E-01  1.90256592214852E-02  5.18508357647159E-01
  4.88452463009220E-01  5.19025659221485E-01 -1.85083576471585E-02
  2.09181556539708E-01  2.90647568978127E-01  7.48026503930177E-01
  2.09181556539708E-01  7.90647568978127E-01  7.51973496069823E-01
  2.90818443460292E-01  7.90647568978127E-01  2.51973496069823E-01
  2.90818443460292E-01  2.90647568978127E-01  2.48026503930177E-01
  8.11179119590242E-01  1.90326771800388E-01  3.60884696786958E-01
  8.11179119590242E-01  6.90326771800388E-01  1.39115303213042E-01
  6.88820880409758E-01  6.90326771800388E-01  6.39115303213042E-01
  6.88820880409758E-01  1.90326771800388E-01  8.60884696786958E-01
 Cartesian forces (fcart) [Ha/bohr]; max,rms= 1.98058E-02 1.04927E-02 (free atoms)
  9.35833373681820E-03  1.98058279805120E-02  1.41534466807216E-02
  9.35833373681820E-03  1.98058279805120E-02 -1.41534466807216E-02
 -9.35833373681820E-03  1.98058279805120E-02  1.41534466807216E-02
 -9.35833373681820E-03  1.98058279805120E-02 -1.41534466807216E-02
  6.35319260209816E-03 -1.26733044821126E-02 -4.72806108193143E-03
  6.35319260209816E-03 -1.26733044821126E-02  4.72806108193144E-03
 -6.35319260209816E-03 -1.26733044821126E-02  4.72806108193143E-03
 -6.35319260209816E-03 -1.26733044821126E-02 -4.72806108193144E-03
  3.97242889618886E-03 -7.13252349839934E-03 -4.55141615325993E-03
  3.97242889618886E-03 -7.13252349839934E-03  4.55141615325993E-03
 -3.97242889618886E-03 -7.13252349839934E-03  4.55141615325993E-03
 -3.97242889618886E-03 -7.13252349839934E-03 -4.55141615325993E-03
 Gradient of E wrt nuclear positions in reduced coordinates (gred)
 -8.97598356030417E-02 -1.89966281766449E-01 -1.35751842475958E-01
 -8.97598356030417E-02 -1.89966281766449E-01  1.35751842475958E-01
  8.97598356030417E-02 -1.89966281766449E-01 -1.35751842475958E-01
  8.97598356030417E-02 -1.89966281766449E-01  1.35751842475958E-01
 -6.09362242848028E-02  1.21555157023977E-01  4.53488833985093E-02
 -6.09362242848028E-02  1.21555157023977E-01 -4.53488833985094E-02
  6.09362242848028E-02  1.21555157023977E-01 -4.53488833985093E-02
  6.09362242848028E-02  1.21555157023977E-01  4.53488833985094E-02
 -3.81012875469341E-02  6.84111247424722E-02  4.36546053140161E-02
 -3.81012875469341E-02  6.84111247424722E-02 -4.36546053140161E-02
  3.81012875469341E-02  6.84111247424722E-02 -4.36546053140161E-02
  3.81012875469341E-02  6.84111247424722E-02  4.36546053140161E-02
 Total energy (etotal) [Ha]= -3.58622492317825E+02
 
 Difference of energy with previous step (new-old):
           Absolute (Ha)=-5.43342E-02
           Relative     =-1.51520E-04
 
--- Iteration: (   4/1000) Internal Cycle: (1/1)
--------------------------------------------------------------------------------
 
---SELF-CONSISTENT-FIELD CONVERGENCE--------------------------------------------

--- !BeginCycle
iteration_state: {dtset: 1, itime: 4, icycle: 1, }
solver: {iscf: 7, nstep: 100, nline: 4, wfoptalg: 0, }
tolerances: {toldfe: 1.00E-10, }
...
 
     iter   Etot(hartree)      deltaE(h)  residm     vres2
 ETOT  1  -358.42538341078    -3.584E+02 8.739E-03 4.915E+02
 ETOT  2  -358.56294623016    -1.376E-01 1.601E-03 1.181E+02
 ETOT  3  -358.60125192561    -3.831E-02 6.021E-04 5.772E+01
 ETOT  4  -358.63310327105    -3.185E-02 7.449E-04 2.077E-01
 ETOT  5  -358.63319333344    -9.006E-05 5.740E-04 6.843E-02
 ETOT  6  -358.63321025044    -1.692E-05 6.705E-04 2.262E-02
 ETOT  7  -358.63321756580    -7.315E-06 5.405E-04 7.080E-04
 ETOT  8  -358.63321789633    -3.305E-07 5.425E-04 1.195E-05
 ETOT  9  -358.63321790147    -5.136E-09 5.560E-04 6.361E-07
 ETOT 10  -358.63321790173    -2.552E-10 3.497E-04 1.094E-08
 ETOT 11  -358.63321790173    -3.979E-13 1.033E-03 4.243E-10
 ETOT 12  -358.63321790173     3.411E-13 2.598E-04 5.499E-11
 
 At SCF step   12, etot is converged : 
  for the second time, diff in etot=  3.411E-13 < toldfe=  1.000E-10
 
 Cartesian components of stress tensor (hartree/bohr^3)
  sigma(1 1)= -2.57604417E-04  sigma(3 2)=  0.00000000E+00
  sigma(2 2)= -2.77425486E-04  sigma(3 1)=  0.00000000E+00
  sigma(3 3)= -5.40889728E-04  sigma(2 1)=  0.00000000E+00
 

--- !ResultsGS
iteration_state: {dtset: 1, itime: 4, icycle: 1, }
comment   : Summary of ground state results
lattice_vectors:
- [  9.5914335,   0.0000000,   0.0000000, ]
- [  0.0000000,   9.5914335,   0.0000000, ]
- [  0.0000000,   0.0000000,   9.5914335, ]
lattice_lengths: [   9.59143,    9.59143,    9.59143, ]
lattice_angles: [ 90.000,  90.000,  90.000, ] # degrees, (23, 13, 12)
lattice_volume:   8.8236964E+02
convergence: {deltae:  3.411E-13, res2:  5.499E-11, residm:  2.598E-04, diffor: null, }
etotal    :  -3.58633218E+02
entropy   :   0.00000000E+00
fermie    :   2.83570599E-01
cartesian_stress_tensor: # hartree/bohr^3
- [ -2.57604417E-04,   0.00000000E+00,   0.00000000E+00, ]
- [  0.00000000E+00,  -2.77425486E-04,   0.00000000E+00, ]
- [  0.00000000E+00,   0.00000000E+00,  -5.40889728E-04, ]
pressure_GPa:   1.0552E+01
xred      :
- [  1.6719E-02,   2.7544E-02,   2.5858E-02, Hf]
- [  1.6719E-02,   5.2754E-01,   4.7414E-01, Hf]
- [  4.8328E-01,   2.7544E-02,   5.2586E-01, Hf]
- [  4.8328E-01,   5.2754E-01,  -2.5858E-02, Hf]
- [  2.1455E-01,   2.8475E-01,   7.5019E-01,  O]
- [  2.1455E-01,   7.8475E-01,   7.4981E-01,  O]
- [  2.8545E-01,   7.8475E-01,   2.4981E-01,  O]
- [  2.8545E-01,   2.8475E-01,   2.5019E-01,  O]
- [  8.1311E-01,   1.8770E-01,   3.5769E-01,  O]
- [  8.1311E-01,   6.8770E-01,   1.4231E-01,  O]
- [  6.8689E-01,   6.8770E-01,   6.4231E-01,  O]
- [  6.8689E-01,   1.8770E-01,   8.5769E-01,  O]
cartesian_forces: # hartree/bohr
- [ -6.27383540E-03,   9.78718144E-03,   6.08304837E-03, ]
- [ -6.27383540E-03,   9.78718144E-03,  -6.08304837E-03, ]
- [  6.27383540E-03,   9.78718144E-03,   6.08304837E-03, ]
- [  6.27383540E-03,   9.78718144E-03,  -6.08304837E-03, ]
- [ -3.58859144E-03,  -4.94741509E-03,  -9.78287768E-03, ]
- [ -3.58859144E-03,  -4.94741509E-03,   9.78287768E-03, ]
- [  3.58859144E-03,  -4.94741509E-03,   9.78287768E-03, ]
- [  3.58859144E-03,  -4.94741509E-03,  -9.78287768E-03, ]
- [  4.49841212E-04,  -4.83976634E-03,   1.00644699E-03, ]
- [  4.49841212E-04,  -4.83976634E-03,  -1.00644699E-03, ]
- [ -4.49841212E-04,  -4.83976634E-03,  -1.00644699E-03, ]
- [ -4.49841212E-04,  -4.83976634E-03,   1.00644699E-03, ]
force_length_stats: {min:   4.96373155E-03, max:   1.31207244E-02, mean:   9.87320075E-03, }
...

 Integrated electronic density in atomic spheres:
 ------------------------------------------------
 Atom  Sphere_radius  Integrated_density
    1        2.00000          8.33358248
    2        2.00000          8.32872752
    3        2.00000          8.32682334
    4        2.00000          8.33153262
    5        2.00000          6.39149163
    6        2.00000          6.39088665
    7        2.00000          6.39458484
    8        2.00000          6.39631593
    9        2.00000          6.36140920
   10        2.00000          6.36151781
   11        2.00000          6.36116877
   12        2.00000          6.35998981
 
---OUTPUT-----------------------------------------------------------------------
 
 Cartesian coordinates (xcart) [bohr]
  1.60360116995786E-01  2.64189802678538E-01  2.48015042450761E-01
  1.60360116995786E-01  5.05990654709761E+00  4.54770170196830E+00
  4.63535662742327E+00  2.64189802678538E-01  5.04373178686982E+00
  4.63535662742327E+00  5.05990654709761E+00 -2.48015042450761E-01
  2.05781612182083E+00  2.73119399416157E+00  7.19541722580763E+00
  2.05781612182083E+00  7.52691073858064E+00  7.19173300744955E+00
  2.73790062259823E+00  7.52691073858064E+00  2.39601626303049E+00
  2.73790062259823E+00  2.73119399416157E+00  2.39970048138857E+00
  7.79889047963273E+00  1.80033294757894E+00  3.43078837496921E+00
  7.79889047963273E+00  6.59604969199801E+00  1.36492836944985E+00
  6.58825975362445E+00  6.59604969199801E+00  6.16064511386890E+00
  6.58825975362445E+00  1.80033294757894E+00  8.22650511938828E+00
 Reduced coordinates (xred)
  1.67190980558227E-02  2.75443501730982E-02  2.58579744872740E-02
  1.67190980558227E-02  5.27544350173099E-01  4.74142025512726E-01
  4.83280901944177E-01  2.75443501730982E-02  5.25857974487274E-01
  4.83280901944177E-01  5.27544350173099E-01 -2.58579744872740E-02
  2.14547296211310E-01  2.84753472704571E-01  7.50192057754577E-01
  2.14547296211310E-01  7.84753472704572E-01  7.49807942245423E-01
  2.85452703788690E-01  7.84753472704572E-01  2.49807942245423E-01
  2.85452703788690E-01  2.84753472704571E-01  2.50192057754577E-01
  8.13109999533288E-01  1.87702177122330E-01  3.57692974565453E-01
  8.13109999533288E-01  6.87702177122331E-01  1.42307025434546E-01
  6.86890000466712E-01  6.87702177122331E-01  6.42307025434546E-01
  6.86890000466712E-01  1.87702177122330E-01  8.57692974565454E-01
 Cartesian forces (fcart) [Ha/bohr]; max,rms= 9.78718E-03 6.05394E-03 (free atoms)
 -6.27383539879866E-03  9.78718143552601E-03  6.08304837490721E-03
 -6.27383539879866E-03  9.78718143552600E-03 -6.08304837490721E-03
  6.27383539879866E-03  9.78718143552601E-03  6.08304837490721E-03
  6.27383539879866E-03  9.78718143552601E-03 -6.08304837490721E-03
 -3.58859143606921E-03 -4.94741509393288E-03 -9.78287768249719E-03
 -3.58859143606921E-03 -4.94741509393288E-03  9.78287768249719E-03
  3.58859143606921E-03 -4.94741509393288E-03  9.78287768249719E-03
  3.58859143606921E-03 -4.94741509393288E-03 -9.78287768249719E-03
  4.49841212418451E-04 -4.83976634159313E-03  1.00644699476583E-03
  4.49841212418451E-04 -4.83976634159313E-03 -1.00644699476583E-03
 -4.49841212418451E-04 -4.83976634159313E-03 -1.00644699476583E-03
 -4.49841212418451E-04 -4.83976634159313E-03  1.00644699476583E-03
 Gradient of E wrt nuclear positions in reduced coordinates (gred)
  6.01750749474955E-02 -9.38730997820389E-02 -5.83451538973073E-02
  6.01750749474955E-02 -9.38730997820388E-02  5.83451538973073E-02
 -6.01750749474955E-02 -9.38730997820389E-02 -5.83451538973073E-02
 -6.01750749474955E-02 -9.38730997820389E-02  5.83451538973073E-02
  3.44197360776718E-02  4.74528028151310E-02  9.38318206211106E-02
  3.44197360776718E-02  4.74528028151310E-02 -9.38318206211106E-02
 -3.44197360776718E-02  4.74528028151310E-02 -9.38318206211106E-02
 -3.44197360776718E-02  4.74528028151310E-02  9.38318206211106E-02
 -4.31462206944987E-03  4.64202969669079E-02 -9.65326941033747E-03
 -4.31462206944987E-03  4.64202969669079E-02  9.65326941033747E-03
  4.31462206944987E-03  4.64202969669079E-02  9.65326941033747E-03
  4.31462206944987E-03  4.64202969669079E-02 -9.65326941033747E-03
 Total energy (etotal) [Ha]= -3.58633217901725E+02
 
 Difference of energy with previous step (new-old):
           Absolute (Ha)=-1.07256E-02
           Relative     =-2.99073E-05
 
--- Iteration: (   5/1000) Internal Cycle: (1/1)
--------------------------------------------------------------------------------
 
---SELF-CONSISTENT-FIELD CONVERGENCE--------------------------------------------

--- !BeginCycle
iteration_state: {dtset: 1, itime: 5, icycle: 1, }
solver: {iscf: 7, nstep: 100, nline: 4, wfoptalg: 0, }
tolerances: {toldfe: 1.00E-10, }
...
 
     iter   Etot(hartree)      deltaE(h)  residm     vres2
 ETOT  1  -358.60904964562    -3.586E+02 1.281E-03 5.976E+01
 ETOT  2  -358.62990938348    -2.086E-02 5.467E-04 7.020E+00
 ETOT  3  -358.63221661326    -2.307E-03 1.960E-04 3.928E+00
 ETOT  4  -358.63493536108    -2.719E-03 2.922E-04 2.541E-02
 ETOT  5  -358.63494672277    -1.136E-05 1.153E-04 1.258E-03
 ETOT  6  -358.63494673924    -1.647E-08 2.108E-04 1.735E-03
 ETOT  7  -358.63494724747    -5.082E-07 1.195E-04 3.531E-05
 ETOT  8  -358.63494726884    -2.137E-08 2.123E-04 2.483E-06
 ETOT  9  -358.63494726958    -7.407E-10 1.145E-04 1.124E-07
 ETOT 10  -358.63494726962    -3.558E-11 1.911E-04 3.345E-09
 ETOT 11  -358.63494726962    -1.762E-12 1.001E-04 9.449E-11
 
 At SCF step   11, etot is converged : 
  for the second time, diff in etot=  1.762E-12 < toldfe=  1.000E-10
 
 Cartesian components of stress tensor (hartree/bohr^3)
  sigma(1 1)= -2.55146300E-04  sigma(3 2)=  0.00000000E+00
  sigma(2 2)= -2.67311549E-04  sigma(3 1)=  0.00000000E+00
  sigma(3 3)= -5.41970907E-04  sigma(2 1)=  0.00000000E+00
 

--- !ResultsGS
iteration_state: {dtset: 1, itime: 5, icycle: 1, }
comment   : Summary of ground state results
lattice_vectors:
- [  9.5914335,   0.0000000,   0.0000000, ]
- [  0.0000000,   9.5914335,   0.0000000, ]
- [  0.0000000,   0.0000000,   9.5914335, ]
lattice_lengths: [   9.59143,    9.59143,    9.59143, ]
lattice_angles: [ 90.000,  90.000,  90.000, ] # degrees, (23, 13, 12)
lattice_volume:   8.8236964E+02
convergence: {deltae: -1.762E-12, res2:  9.449E-11, residm:  1.001E-04, diffor: null, }
etotal    :  -3.58634947E+02
entropy   :   0.00000000E+00
fermie    :   2.83579071E-01
cartesian_stress_tensor: # hartree/bohr^3
- [ -2.55146300E-04,   0.00000000E+00,   0.00000000E+00, ]
- [  0.00000000E+00,  -2.67311549E-04,   0.00000000E+00, ]
- [  0.00000000E+00,   0.00000000E+00,  -5.41970907E-04, ]
pressure_GPa:   1.0439E+01
xred      :
- [  1.7237E-02,   3.0884E-02,   2.8496E-02, Hf]
- [  1.7237E-02,   5.3088E-01,   4.7150E-01, Hf]
- [  4.8276E-01,   3.0884E-02,   5.2850E-01, Hf]
- [  4.8276E-01,   5.3088E-01,  -2.8496E-02, Hf]
- [  2.1552E-01,   2.8266E-01,   7.4966E-01,  O]
- [  2.1552E-01,   7.8266E-01,   7.5034E-01,  O]
- [  2.8448E-01,   7.8266E-01,   2.5034E-01,  O]
- [  2.8448E-01,   2.8266E-01,   2.4966E-01,  O]
- [  8.1365E-01,   1.8646E-01,   3.5698E-01,  O]
- [  8.1365E-01,   6.8646E-01,   1.4302E-01,  O]
- [  6.8635E-01,   6.8646E-01,   6.4302E-01,  O]
- [  6.8635E-01,   1.8646E-01,   8.5698E-01,  O]
cartesian_forces: # hartree/bohr
- [ -6.77376765E-03,   5.17420895E-03,   2.71910937E-03, ]
- [ -6.77376765E-03,   5.17420895E-03,  -2.71910937E-03, ]
- [  6.77376765E-03,   5.17420895E-03,   2.71910937E-03, ]
- [  6.77376765E-03,   5.17420895E-03,  -2.71910937E-03, ]
- [ -5.77396939E-03,  -1.74290861E-03,  -9.65757757E-03, ]
- [ -5.77396939E-03,  -1.74290861E-03,   9.65757757E-03, ]
- [  5.77396939E-03,  -1.74290861E-03,   9.65757757E-03, ]
- [  5.77396939E-03,  -1.74290861E-03,  -9.65757757E-03, ]
- [ -3.12768663E-04,  -3.43130034E-03,   2.50338817E-03, ]
- [ -3.12768663E-04,  -3.43130034E-03,  -2.50338817E-03, ]
- [  3.12768663E-04,  -3.43130034E-03,  -2.50338817E-03, ]
- [  3.12768663E-04,  -3.43130034E-03,   2.50338817E-03, ]
force_length_stats: {min:   4.25894336E-03, max:   1.13861871E-02, mean:   8.19739757E-03, }
...

 Integrated electronic density in atomic spheres:
 ------------------------------------------------
 Atom  Sphere_radius  Integrated_density
    1        2.00000          8.32605776
    2        2.00000          8.33353721
    3        2.00000          8.32525581
    4        2.00000          8.33482379
    5        2.00000          6.39101486
    6        2.00000          6.38953341
    7        2.00000          6.39405625
    8        2.00000          6.38992642
    9        2.00000          6.35970724
   10        2.00000          6.36038372
   11        2.00000          6.36086570
   12        2.00000          6.36065717
 
---OUTPUT-----------------------------------------------------------------------
 
 Cartesian coordinates (xcart) [bohr]
  1.65328566208073E-01  2.96218735890668E-01  2.73320728670050E-01
  1.65328566208073E-01  5.09193548030973E+00  4.52239601574901E+00
  4.63038817821098E+00  2.96218735890668E-01  5.06903747308911E+00
  4.63038817821098E+00  5.09193548030973E+00 -2.73320728670051E-01
  2.06712713484864E+00  2.71110857656024E+00  7.19032885379852E+00
  2.06712713484864E+00  7.50682532097930E+00  7.19682137945865E+00
  2.72858960957041E+00  7.50682532097930E+00  2.40110463503960E+00
  2.72858960957041E+00  2.71110857656024E+00  2.39461210937946E+00
  7.80407892702541E+00  1.78838943196815E+00  3.42395373851524E+00
  7.80407892702541E+00  6.58410617638722E+00  1.37176300590381E+00
  6.58307130623176E+00  6.58410617638722E+00  6.16747975032286E+00
  6.58307130623176E+00  1.78838943196815E+00  8.21967048293432E+00
 Reduced coordinates (xred)
  1.72371070914969E-02  3.08836772141921E-02  2.84963377985286E-02
  1.72371070914969E-02  5.30883677214192E-01  4.71503662201472E-01
  4.82762892908502E-01  3.08836772141921E-02  5.28496337798529E-01
  4.82762892908502E-01  5.30883677214192E-01 -2.84963377985286E-02
  2.15518059657530E-01  2.82659373045254E-01  7.49661545603810E-01
  2.15518059657530E-01  7.82659373045254E-01  7.50338454396190E-01
  2.84481940342470E-01  7.82659373045254E-01  2.50338454396191E-01
  2.84481940342470E-01  2.82659373045254E-01  2.49661545603810E-01
  8.13650945513753E-01  1.86456949740553E-01  3.56980397403560E-01
  8.13650945513753E-01  6.86456949740555E-01  1.43019602596440E-01
  6.86349054486247E-01  6.86456949740555E-01  6.43019602596438E-01
  6.86349054486247E-01  1.86456949740553E-01  8.56980397403562E-01
 Cartesian forces (fcart) [Ha/bohr]; max,rms= 9.65758E-03 5.03139E-03 (free atoms)
 -6.77376764856764E-03  5.17420894929143E-03  2.71910937481378E-03
 -6.77376764856764E-03  5.17420894929143E-03 -2.71910937481378E-03
  6.77376764856764E-03  5.17420894929143E-03  2.71910937481378E-03
  6.77376764856764E-03  5.17420894929143E-03 -2.71910937481378E-03
 -5.77396939470707E-03 -1.74290861282113E-03 -9.65757756673028E-03
 -5.77396939470707E-03 -1.74290861282113E-03  9.65757756673027E-03
  5.77396939470707E-03 -1.74290861282113E-03  9.65757756673027E-03
  5.77396939470707E-03 -1.74290861282113E-03 -9.65757756673027E-03
 -3.12768663159436E-04 -3.43130033647030E-03  2.50338817294974E-03
 -3.12768663159436E-04 -3.43130033647030E-03 -2.50338817294974E-03
  3.12768663159437E-04 -3.43130033647030E-03 -2.50338817294974E-03
  3.12768663159437E-04 -3.43130033647030E-03  2.50338817294974E-03
 Gradient of E wrt nuclear positions in reduced coordinates (gred)
  6.49701418700799E-02 -4.96280809944797E-02 -2.60801567174026E-02
  6.49701418700799E-02 -4.96280809944797E-02  2.60801567174026E-02
 -6.49701418700799E-02 -4.96280809944797E-02 -2.60801567174026E-02
 -6.49701418700799E-02 -4.96280809944797E-02  2.60801567174026E-02
  5.53806434159198E-02  1.67169920369970E-02  9.26300128945885E-02
  5.53806434159197E-02  1.67169920369970E-02 -9.26300128945885E-02
 -5.53806434159197E-02  1.67169920369970E-02 -9.26300128945885E-02
 -5.53806434159197E-02  1.67169920369970E-02  9.26300128945885E-02
  2.99989983008655E-03  3.29110889574827E-02 -2.40110811575914E-02
  2.99989983008655E-03  3.29110889574827E-02  2.40110811575914E-02
 -2.99989983008655E-03  3.29110889574827E-02  2.40110811575914E-02
 -2.99989983008655E-03  3.29110889574827E-02 -2.40110811575914E-02
 Total energy (etotal) [Ha]= -3.58634947269619E+02
 
 Difference of energy with previous step (new-old):
           Absolute (Ha)=-1.72937E-03
           Relative     =-4.82210E-06
 
--- Iteration: (   6/1000) Internal Cycle: (1/1)
--------------------------------------------------------------------------------
 
---SELF-CONSISTENT-FIELD CONVERGENCE--------------------------------------------

--- !BeginCycle
iteration_state: {dtset: 1, itime: 6, icycle: 1, }
solver: {iscf: 7, nstep: 100, nline: 4, wfoptalg: 0, }
tolerances: {toldfe: 1.00E-10, }
...
 
     iter   Etot(hartree)      deltaE(h)  residm     vres2
 ETOT  1  -358.61529308460    -3.586E+02 7.533E-04 4.771E+01
 ETOT  2  -358.63007262358    -1.478E-02 2.522E-04 1.157E+01
 ETOT  3  -358.63346122173    -3.389E-03 1.482E-04 6.232E+00
 ETOT  4  -358.63646486306    -3.004E-03 9.596E-05 1.767E-02
 ETOT  5  -358.63647236689    -7.504E-06 6.108E-05 3.715E-03
 ETOT  6  -358.63647279556    -4.287E-07 5.679E-05 1.301E-03
 ETOT  7  -358.63647336316    -5.676E-07 4.879E-05 3.799E-05
 ETOT  8  -358.63647338396    -2.080E-08 4.935E-05 2.390E-06
 ETOT  9  -358.63647338431    -3.488E-10 4.113E-05 6.127E-07
 ETOT 10  -358.63647338445    -1.408E-10 4.273E-05 1.729E-09
 ETOT 11  -358.63647338445     1.137E-13 3.611E-05 5.361E-11
 ETOT 12  -358.63647338445     8.527E-13 4.335E-05 3.989E-12
 
 At SCF step   12, etot is converged : 
  for the second time, diff in etot=  8.527E-13 < toldfe=  1.000E-10
 
 Cartesian components of stress tensor (hartree/bohr^3)
  sigma(1 1)= -2.54953621E-04  sigma(3 2)=  0.00000000E+00
  sigma(2 2)= -2.61403909E-04  sigma(3 1)=  0.00000000E+00
  sigma(3 3)= -5.51599994E-04  sigma(2 1)=  0.00000000E+00
 

--- !ResultsGS
iteration_state: {dtset: 1, itime: 6, icycle: 1, }
comment   : Summary of ground state results
lattice_vectors:
- [  9.5914335,   0.0000000,   0.0000000, ]
- [  0.0000000,   9.5914335,   0.0000000, ]
- [  0.0000000,   0.0000000,   9.5914335, ]
lattice_lengths: [   9.59143,    9.59143,    9.59143, ]
lattice_angles: [ 90.000,  90.000,  90.000, ] # degrees, (23, 13, 12)
lattice_volume:   8.8236964E+02
convergence: {deltae:  8.527E-13, res2:  3.989E-12, residm:  4.335E-05, diffor: null, }
etotal    :  -3.58636473E+02
entropy   :   0.00000000E+00
fermie    :   2.82070597E-01
cartesian_stress_tensor: # hartree/bohr^3
- [ -2.54953621E-04,   0.00000000E+00,   0.00000000E+00, ]
- [  0.00000000E+00,  -2.61403909E-04,   0.00000000E+00, ]
- [  0.00000000E+00,   0.00000000E+00,  -5.51599994E-04, ]
pressure_GPa:   1.0473E+01
xred      :
- [  1.6404E-02,   3.3808E-02,   3.0553E-02, Hf]
- [  1.6404E-02,   5.3381E-01,   4.6945E-01, Hf]
- [  4.8360E-01,   3.3808E-02,   5.3055E-01, Hf]
- [  4.8360E-01,   5.3381E-01,  -3.0553E-02, Hf]
- [  2.1508E-01,   2.8109E-01,   7.4762E-01,  O]
- [  2.1508E-01,   7.8109E-01,   7.5238E-01,  O]
- [  2.8492E-01,   7.8109E-01,   2.5238E-01,  O]
- [  2.8492E-01,   2.8109E-01,   2.4762E-01,  O]
- [  8.1393E-01,   1.8510E-01,   3.5699E-01,  O]
- [  8.1393E-01,   6.8510E-01,   1.4301E-01,  O]
- [  6.8607E-01,   6.8510E-01,   6.4301E-01,  O]
- [  6.8607E-01,   1.8510E-01,   8.5699E-01,  O]
cartesian_forces: # hartree/bohr
- [ -1.91220729E-03,   8.02338804E-04,  -4.81179801E-04, ]
- [ -1.91220729E-03,   8.02338804E-04,   4.81179801E-04, ]
- [  1.91220729E-03,   8.02338804E-04,  -4.81179801E-04, ]
- [  1.91220729E-03,   8.02338804E-04,   4.81179801E-04, ]
- [ -5.84150119E-03,   8.15241356E-04,  -8.28474692E-03, ]
- [ -5.84150119E-03,   8.15241356E-04,   8.28474692E-03, ]
- [  5.84150119E-03,   8.15241356E-04,   8.28474692E-03, ]
- [  5.84150119E-03,   8.15241356E-04,  -8.28474692E-03, ]
- [ -6.90159488E-05,  -1.61758016E-03,   3.34351696E-03, ]
- [ -6.90159488E-05,  -1.61758016E-03,  -3.34351696E-03, ]
- [  6.90159488E-05,  -1.61758016E-03,  -3.34351696E-03, ]
- [  6.90159488E-05,  -1.61758016E-03,   3.34351696E-03, ]
force_length_stats: {min:   2.12880678E-03, max:   1.01697977E-02, mean:   5.33783271E-03, }
...

 Integrated electronic density in atomic spheres:
 ------------------------------------------------
 Atom  Sphere_radius  Integrated_density
    1        2.00000          8.32090392
    2        2.00000          8.33543725
    3        2.00000          8.32755656
    4        2.00000          8.32487662
    5        2.00000          6.38387791
    6        2.00000          6.38560491
    7        2.00000          6.38779722
    8        2.00000          6.38824115
    9        2.00000          6.36467179
   10        2.00000          6.36482568
   11        2.00000          6.37009259
   12        2.00000          6.36198426
 
---OUTPUT-----------------------------------------------------------------------
 
 Cartesian coordinates (xcart) [bohr]
  1.57336602826783E-01  3.24268453000649E-01  2.93051671183841E-01
  1.57336602826783E-01  5.11998519741971E+00  4.50266507323522E+00
  4.63838014159228E+00  3.24268453000649E-01  5.08876841560290E+00
  4.63838014159228E+00  5.11998519741971E+00 -2.93051671183841E-01
  2.06296233731694E+00  2.69605556483120E+00  7.17074996856640E+00
  2.06296233731694E+00  7.49177230925026E+00  7.21640026469077E+00
  2.73275440710211E+00  7.49177230925026E+00  2.42068352027171E+00
  2.73275440710211E+00  2.69605556483120E+00  2.37503322414735E+00
  7.80673136962998E+00  1.77539272658721E+00  3.42406978949870E+00
  7.80673136962998E+00  6.57110947100627E+00  1.37164695492036E+00
  6.58041886362719E+00  6.57110947100627E+00  6.16736369933941E+00
  6.58041886362719E+00  1.77539272658721E+00  8.21978653391776E+00
 Reduced coordinates (xred)
  1.64038673687182E-02  3.38081323691616E-02  3.05534799907517E-02
  1.64038673687182E-02  5.33808132369162E-01  4.69446520009248E-01
  4.83596132631282E-01  3.38081323691616E-02  5.30553479990752E-01
  4.83596132631282E-01  5.33808132369162E-01 -3.05534799907517E-02
  2.15083839106812E-01  2.81089950523944E-01  7.47620256858503E-01
  2.15083839106812E-01  7.81089950523944E-01  7.52379743141497E-01
  2.84916160893188E-01  7.81089950523944E-01  2.52379743141497E-01
  2.84916160893188E-01  2.81089950523944E-01  2.47620256858503E-01
  8.13927488390025E-01  1.85101917106895E-01  3.56992496844545E-01
  8.13927488390025E-01  6.85101917106895E-01  1.43007503155455E-01
  6.86072511609975E-01  6.85101917106895E-01  6.43007503155455E-01
  6.86072511609975E-01  1.85101917106895E-01  8.56992496844545E-01
 Cartesian forces (fcart) [Ha/bohr]; max,rms= 8.28475E-03 3.67812E-03 (free atoms)
 -1.91220729271494E-03  8.02338804423400E-04 -4.81179800603160E-04
 -1.91220729271494E-03  8.02338804423400E-04  4.81179800603160E-04
  1.91220729271494E-03  8.02338804423400E-04 -4.81179800603160E-04
  1.91220729271494E-03  8.02338804423400E-04  4.81179800603160E-04
 -5.84150119241276E-03  8.15241355710645E-04 -8.28474691989298E-03
 -5.84150119241276E-03  8.15241355710645E-04  8.28474691989298E-03
  5.84150119241276E-03  8.15241355710645E-04  8.28474691989298E-03
  5.84150119241276E-03  8.15241355710645E-04 -8.28474691989298E-03
 -6.90159488170457E-05 -1.61758016013405E-03  3.34351696099150E-03
 -6.90159488170457E-05 -1.61758016013405E-03 -3.34351696099150E-03
  6.90159488170457E-05 -1.61758016013405E-03 -3.34351696099150E-03
  6.90159488170457E-05 -1.61758016013405E-03  3.34351696099150E-03
 Gradient of E wrt nuclear positions in reduced coordinates (gred)
  1.83408090649465E-02 -7.69557927814093E-03  4.61520405365759E-03
  1.83408090649465E-02 -7.69557927814094E-03 -4.61520405365759E-03
 -1.83408090649465E-02 -7.69557927814093E-03  4.61520405365759E-03
 -1.83408090649465E-02 -7.69557927814093E-03 -4.61520405365759E-03
  5.60283701619955E-02 -7.81933324064887E-03  7.94625990540100E-02
  5.60283701619955E-02 -7.81933324064887E-03 -7.94625990540100E-02
 -5.60283701619955E-02 -7.81933324064887E-03 -7.94625990540100E-02
 -5.60283701619955E-02 -7.81933324064887E-03  7.94625990540100E-02
  6.61961882747749E-04  1.55149125187898E-02 -3.20691205501522E-02
  6.61961882747749E-04  1.55149125187898E-02  3.20691205501522E-02
 -6.61961882747749E-04  1.55149125187898E-02  3.20691205501522E-02
 -6.61961882747749E-04  1.55149125187898E-02 -3.20691205501522E-02
 Total energy (etotal) [Ha]= -3.58636473384450E+02
 
 Difference of energy with previous step (new-old):
           Absolute (Ha)=-1.52611E-03
           Relative     =-4.25533E-06
 
--- Iteration: (   7/1000) Internal Cycle: (1/1)
--------------------------------------------------------------------------------
 
---SELF-CONSISTENT-FIELD CONVERGENCE--------------------------------------------

--- !BeginCycle
iteration_state: {dtset: 1, itime: 7, icycle: 1, }
solver: {iscf: 7, nstep: 100, nline: 4, wfoptalg: 0, }
tolerances: {toldfe: 1.00E-10, }
...
 
     iter   Etot(hartree)      deltaE(h)  residm     vres2
 ETOT  1  -358.62297203715    -3.586E+02 2.965E-04 3.502E+01
 ETOT  2  -358.63025641635    -7.284E-03 1.156E-04 1.575E+01
 ETOT  3  -358.63535420465    -5.098E-03 1.034E-04 5.597E+00
 ETOT  4  -358.63765842648    -2.304E-03 1.042E-04 1.967E-02
 ETOT  5  -358.63766426630    -5.840E-06 5.233E-05 4.530E-03
 ETOT  6  -358.63766523606    -9.698E-07 9.971E-05 1.087E-03
 ETOT  7  -358.63766575795    -5.219E-07 5.077E-05 2.269E-05
 ETOT  8  -358.63766577129    -1.334E-08 9.703E-05 3.970E-07
 ETOT  9  -358.63766577137    -7.162E-11 4.869E-05 2.992E-07
 ETOT 10  -358.63766577143    -6.190E-11 9.139E-05 5.974E-09
 
 At SCF step   10, etot is converged : 
  for the second time, diff in etot=  6.190E-11 < toldfe=  1.000E-10
 
 Cartesian components of stress tensor (hartree/bohr^3)
  sigma(1 1)= -2.48834945E-04  sigma(3 2)=  0.00000000E+00
  sigma(2 2)= -2.56982838E-04  sigma(3 1)=  0.00000000E+00
  sigma(3 3)= -5.61781836E-04  sigma(2 1)=  0.00000000E+00
 

--- !ResultsGS
iteration_state: {dtset: 1, itime: 7, icycle: 1, }
comment   : Summary of ground state results
lattice_vectors:
- [  9.5914335,   0.0000000,   0.0000000, ]
- [  0.0000000,   9.5914335,   0.0000000, ]
- [  0.0000000,   0.0000000,   9.5914335, ]
lattice_lengths: [   9.59143,    9.59143,    9.59143, ]
lattice_angles: [ 90.000,  90.000,  90.000, ] # degrees, (23, 13, 12)
lattice_volume:   8.8236964E+02
convergence: {deltae: -6.190E-11, res2:  5.974E-09, residm:  9.139E-05, diffor: null, }
etotal    :  -3.58637666E+02
entropy   :   0.00000000E+00
fermie    :   2.80215179E-01
cartesian_stress_tensor: # hartree/bohr^3
- [ -2.48834945E-04,   0.00000000E+00,   0.00000000E+00, ]
- [  0.00000000E+00,  -2.56982838E-04,   0.00000000E+00, ]
- [  0.00000000E+00,   0.00000000E+00,  -5.61781836E-04, ]
pressure_GPa:   1.0470E+01
xred      :
- [  1.4985E-02,   3.5417E-02,   3.1357E-02, Hf]
- [  1.4985E-02,   5.3542E-01,   4.6864E-01, Hf]
- [  4.8501E-01,   3.5417E-02,   5.3136E-01, Hf]
- [  4.8501E-01,   5.3542E-01,  -3.1357E-02, Hf]
- [  2.1332E-01,   2.8054E-01,   7.4445E-01,  O]
- [  2.1332E-01,   7.8054E-01,   7.5555E-01,  O]
- [  2.8668E-01,   7.8054E-01,   2.5555E-01,  O]
- [  2.8668E-01,   2.8054E-01,   2.4445E-01,  O]
- [  8.1396E-01,   1.8405E-01,   3.5785E-01,  O]
- [  8.1396E-01,   6.8405E-01,   1.4215E-01,  O]
- [  6.8604E-01,   6.8405E-01,   6.4215E-01,  O]
- [  6.8604E-01,   1.8405E-01,   8.5785E-01,  O]
cartesian_forces: # hartree/bohr
- [  4.77506482E-03,  -1.51323350E-03,  -2.10568338E-03, ]
- [  4.77506482E-03,  -1.51323350E-03,   2.10568338E-03, ]
- [ -4.77506482E-03,  -1.51323350E-03,  -2.10568338E-03, ]
- [ -4.77506482E-03,  -1.51323350E-03,   2.10568338E-03, ]
- [ -3.75988073E-03,   1.64153579E-03,  -6.42259695E-03, ]
- [ -3.75988073E-03,   1.64153579E-03,   6.42259695E-03, ]
- [  3.75988073E-03,   1.64153579E-03,   6.42259695E-03, ]
- [  3.75988073E-03,   1.64153579E-03,  -6.42259695E-03, ]
- [  1.37126957E-03,  -1.28302289E-04,   3.10183869E-03, ]
- [  1.37126957E-03,  -1.28302289E-04,  -3.10183869E-03, ]
- [ -1.37126957E-03,  -1.28302289E-04,  -3.10183869E-03, ]
- [ -1.37126957E-03,  -1.28302289E-04,   3.10183869E-03, ]
force_length_stats: {min:   3.39385400E-03, max:   7.62109536E-03, mean:   5.48288086E-03, }
...

 Integrated electronic density in atomic spheres:
 ------------------------------------------------
 Atom  Sphere_radius  Integrated_density
    1        2.00000          8.32794439
    2        2.00000          8.33527279
    3        2.00000          8.32959819
    4        2.00000          8.32993098
    5        2.00000          6.37448290
    6        2.00000          6.38441306
    7        2.00000          6.37608405
    8        2.00000          6.38277135
    9        2.00000          6.37008202
   10        2.00000          6.37381548
   11        2.00000          6.37420251
   12        2.00000          6.36653175
 
---OUTPUT-----------------------------------------------------------------------
 
 Cartesian coordinates (xcart) [bohr]
  1.43730406348260E-01  3.39699530605391E-01  3.00760370857838E-01
  1.43730406348260E-01  5.13541627502445E+00  4.49495637356122E+00
  4.65198633807080E+00  3.39699530605391E-01  5.09647711527690E+00
  4.65198633807080E+00  5.13541627502445E+00 -3.00760370857838E-01
  2.04599792504681E+00  2.69074202229512E+00  7.14038141660321E+00
  2.04599792504681E+00  7.48645876671418E+00  7.24676881665397E+00
  2.74971881937225E+00  7.48645876671418E+00  2.45105207223491E+00
  2.74971881937225E+00  2.69074202229512E+00  2.34466467218415E+00
  7.80703120409206E+00  1.76527519151855E+00  3.43229567779860E+00
  7.80703120409206E+00  6.56099193593761E+00  1.36342106662046E+00
  6.58011902916511E+00  6.56099193593761E+00  6.15913781103951E+00
  6.58011902916511E+00  1.76527519151855E+00  8.22801242221766E+00
 Reduced coordinates (xred)
  1.49852893746825E-02  3.54169719261162E-02  3.13571867237409E-02
  1.49852893746825E-02  5.35416971926116E-01  4.68642813276259E-01
  4.85014710625317E-01  3.54169719261162E-02  5.31357186723741E-01
  4.85014710625317E-01  5.35416971926116E-01 -3.13571867237409E-02
  2.13315134534145E-01  2.80535962161071E-01  7.44454040672097E-01
  2.13315134534145E-01  7.80535962161071E-01  7.55545959327903E-01
  2.86684865465855E-01  7.80535962161071E-01  2.55545959327903E-01
  2.86684865465855E-01  2.80535962161071E-01  2.44454040672097E-01
  8.13958749041775E-01  1.84047065912813E-01  3.57850125509694E-01
  8.13958749041775E-01  6.84047065912813E-01  1.42149874490306E-01
  6.86041250958225E-01  6.84047065912813E-01  6.42149874490306E-01
  6.86041250958225E-01  1.84047065912813E-01  8.57850125509694E-01
 Cartesian forces (fcart) [Ha/bohr]; max,rms= 6.42260E-03 3.31871E-03 (free atoms)
  4.77506482136799E-03 -1.51323349891533E-03 -2.10568337802434E-03
  4.77506482136799E-03 -1.51323349891533E-03  2.10568337802434E-03
 -4.77506482136799E-03 -1.51323349891533E-03 -2.10568337802434E-03
 -4.77506482136799E-03 -1.51323349891533E-03  2.10568337802434E-03
 -3.75988073380785E-03  1.64153578816677E-03 -6.42259695248080E-03
 -3.75988073380785E-03  1.64153578816677E-03  6.42259695248080E-03
  3.75988073380785E-03  1.64153578816677E-03  6.42259695248080E-03
  3.75988073380785E-03  1.64153578816677E-03 -6.42259695248080E-03
  1.37126957076050E-03 -1.28302289251434E-04  3.10183868611622E-03
  1.37126957076050E-03 -1.28302289251434E-04 -3.10183868611622E-03
 -1.37126957076050E-03 -1.28302289251434E-04 -3.10183868611622E-03
 -1.37126957076050E-03 -1.28302289251434E-04  3.10183868611622E-03
 Gradient of E wrt nuclear positions in reduced coordinates (gred)
 -4.57997166390417E-02  1.45140784579282E-02  2.01965220688724E-02
 -4.57997166390417E-02  1.45140784579282E-02 -2.01965220688724E-02
  4.57997166390417E-02  1.45140784579282E-02  2.01965220688724E-02
  4.57997166390417E-02  1.45140784579282E-02 -2.01965220688724E-02
  3.60626459842818E-02 -1.57446813317490E-02  6.16019114953340E-02
  3.60626459842818E-02 -1.57446813317490E-02 -6.16019114953340E-02
 -3.60626459842818E-02 -1.57446813317490E-02 -6.16019114953340E-02
 -3.60626459842818E-02 -1.57446813317490E-02  6.16019114953340E-02
 -1.31524408832170E-02  1.23060287382080E-03 -2.97510794509887E-02
 -1.31524408832170E-02  1.23060287382080E-03  2.97510794509887E-02
  1.31524408832170E-02  1.23060287382080E-03  2.97510794509887E-02
  1.31524408832170E-02  1.23060287382080E-03 -2.97510794509887E-02
 Total energy (etotal) [Ha]= -3.58637665771427E+02
 
 Difference of energy with previous step (new-old):
           Absolute (Ha)=-1.19239E-03
           Relative     =-3.32477E-06
 
--- Iteration: (   8/1000) Internal Cycle: (1/1)
--------------------------------------------------------------------------------
 
---SELF-CONSISTENT-FIELD CONVERGENCE--------------------------------------------

--- !BeginCycle
iteration_state: {dtset: 1, itime: 8, icycle: 1, }
solver: {iscf: 7, nstep: 100, nline: 4, wfoptalg: 0, }
tolerances: {toldfe: 1.00E-10, }
...
 
     iter   Etot(hartree)      deltaE(h)  residm     vres2
 ETOT  1  -358.62759495694    -3.586E+02 2.239E-04 2.775E+01
 ETOT  2  -358.63508145246    -7.486E-03 9.815E-05 6.878E+00
 ETOT  3  -358.63689672190    -1.815E-03 5.575E-05 3.570E+00
 ETOT  4  -358.63850571451    -1.609E-03 6.899E-05 1.331E-02
 ETOT  5  -358.63851031120    -4.597E-06 3.821E-05 1.585E-03
 ETOT  6  -358.63851060997    -2.988E-07 5.311E-05 1.067E-03
 ETOT  7  -358.63851097919    -3.692E-07 3.031E-05 3.501E-05
 ETOT  8  -358.63851099381    -1.462E-08 4.228E-05 4.373E-07
 ETOT  9  -358.63851099400    -1.889E-10 2.404E-05 5.915E-08
 ETOT 10  -358.63851099402    -1.751E-11 3.332E-05 1.389E-09
 ETOT 11  -358.63851099402    -1.933E-12 1.888E-05 2.238E-11
 
 At SCF step   11, etot is converged : 
  for the second time, diff in etot=  1.933E-12 < toldfe=  1.000E-10
 
 Cartesian components of stress tensor (hartree/bohr^3)
  sigma(1 1)= -2.35519547E-04  sigma(3 2)=  0.00000000E+00
  sigma(2 2)= -2.53958416E-04  sigma(3 1)=  0.00000000E+00
  sigma(3 3)= -5.68608593E-04  sigma(2 1)=  0.00000000E+00
 

--- !ResultsGS
iteration_state: {dtset: 1, itime: 8, icycle: 1, }
comment   : Summary of ground state results
lattice_vectors:
- [  9.5914335,   0.0000000,   0.0000000, ]
- [  0.0000000,   9.5914335,   0.0000000, ]
- [  0.0000000,   0.0000000,   9.5914335, ]
lattice_lengths: [   9.59143,    9.59143,    9.59143, ]
lattice_angles: [ 90.000,  90.000,  90.000, ] # degrees, (23, 13, 12)
lattice_volume:   8.8236964E+02
convergence: {deltae: -1.933E-12, res2:  2.238E-11, residm:  1.888E-05, diffor: null, }
etotal    :  -3.58638511E+02
entropy   :   0.00000000E+00
fermie    :   2.79383655E-01
cartesian_stress_tensor: # hartree/bohr^3
- [ -2.35519547E-04,   0.00000000E+00,   0.00000000E+00, ]
- [  0.00000000E+00,  -2.53958416E-04,   0.00000000E+00, ]
- [  0.00000000E+00,   0.00000000E+00,  -5.68608593E-04, ]
pressure_GPa:   1.0377E+01
xred      :
- [  1.4191E-02,   3.5888E-02,   3.1204E-02, Hf]
- [  1.4191E-02,   5.3589E-01,   4.6880E-01, Hf]
- [  4.8581E-01,   3.5888E-02,   5.3120E-01, Hf]
- [  4.8581E-01,   5.3589E-01,  -3.1204E-02, Hf]
- [  2.1115E-01,   2.8069E-01,   7.4102E-01,  O]
- [  2.1115E-01,   7.8069E-01,   7.5898E-01,  O]
- [  2.8885E-01,   7.8069E-01,   2.5898E-01,  O]
- [  2.8885E-01,   2.8069E-01,   2.4102E-01,  O]
- [  8.1407E-01,   1.8342E-01,   3.5915E-01,  O]
- [  8.1407E-01,   6.8342E-01,   1.4085E-01,  O]
- [  6.8593E-01,   6.8342E-01,   6.4085E-01,  O]
- [  6.8593E-01,   1.8342E-01,   8.5915E-01,  O]
cartesian_forces: # hartree/bohr
- [  8.02872640E-03,  -1.70939399E-03,  -2.00588555E-03, ]
- [  8.02872640E-03,  -1.70939399E-03,   2.00588555E-03, ]
- [ -8.02872640E-03,  -1.70939399E-03,  -2.00588555E-03, ]
- [ -8.02872640E-03,  -1.70939399E-03,   2.00588555E-03, ]
- [ -9.06022705E-04,   1.17550034E-03,  -4.48807994E-03, ]
- [ -9.06022705E-04,   1.17550034E-03,   4.48807994E-03, ]
- [  9.06022705E-04,   1.17550034E-03,   4.48807994E-03, ]
- [  9.06022705E-04,   1.17550034E-03,  -4.48807994E-03, ]
- [  3.01947129E-03,   5.33893652E-04,   2.21038650E-03, ]
- [  3.01947129E-03,   5.33893652E-04,  -2.21038650E-03, ]
- [ -3.01947129E-03,   5.33893652E-04,  -2.21038650E-03, ]
- [ -3.01947129E-03,   5.33893652E-04,   2.21038650E-03, ]
force_length_stats: {min:   3.77995473E-03, max:   8.45021019E-03, mean:   5.65242395E-03, }
...

 Integrated electronic density in atomic spheres:
 ------------------------------------------------
 Atom  Sphere_radius  Integrated_density
    1        2.00000          8.32723171
    2        2.00000          8.33572687
    3        2.00000          8.33080533
    4        2.00000          8.33013745
    5        2.00000          6.36811725
    6        2.00000          6.37386163
    7        2.00000          6.37471089
    8        2.00000          6.37665383
    9        2.00000          6.37169948
   10        2.00000          6.37314610
   11        2.00000          6.37513301
   12        2.00000          6.37503521
 
---OUTPUT-----------------------------------------------------------------------
 
 Cartesian coordinates (xcart) [bohr]
  1.36113513669606E-01  3.44218941504590E-01  2.99288018973404E-01
  1.36113513669606E-01  5.13993568592365E+00  4.49642872544565E+00
  4.65960323074945E+00  3.44218941504590E-01  5.09500476339246E+00
  4.65960323074945E+00  5.13993568592365E+00 -2.99288018973404E-01
  2.02521889009448E+00  2.69225764436718E+00  7.10744836218346E+00
  2.02521889009448E+00  7.48797438878624E+00  7.27970187107371E+00
  2.77049785432458E+00  7.48797438878624E+00  2.48398512665465E+00
  2.77049785432458E+00  2.69225764436718E+00  2.31173161776440E+00
  7.80811056043933E+00  1.75924015854729E+00  3.44473929038166E+00
  7.80811056043933E+00  6.55495690296634E+00  1.35097745403740E+00
  6.57903967281784E+00  6.55495690296635E+00  6.14669419845645E+00
  6.57903967281784E+00  1.75924015854729E+00  8.24045603480072E+00
 Reduced coordinates (xred)
  1.41911544116952E-02  3.58881643609550E-02  3.12036797546160E-02
  1.41911544116952E-02  5.35888164360955E-01  4.68796320245384E-01
  4.85808845588305E-01  3.58881643609550E-02  5.31203679754616E-01
  4.85808845588305E-01  5.35888164360955E-01 -3.12036797546160E-02
  2.11148718536317E-01  2.80693980467075E-01  7.41020450223071E-01
  2.11148718536317E-01  7.80693980467075E-01  7.58979549776929E-01
  2.88851281463683E-01  7.80693980467075E-01  2.58979549776929E-01
  2.88851281463683E-01  2.80693980467075E-01  2.41020450223071E-01
  8.14071282413197E-01  1.83417855171969E-01  3.59147492852911E-01
  8.14071282413197E-01  6.83417855171969E-01  1.40852507147089E-01
  6.85928717586803E-01  6.83417855171970E-01  6.40852507147088E-01
  6.85928717586803E-01  1.83417855171969E-01  8.59147492852912E-01
 Cartesian forces (fcart) [Ha/bohr]; max,rms= 8.02873E-03 3.46474E-03 (free atoms)
  8.02872640462982E-03 -1.70939398933564E-03 -2.00588554617193E-03
  8.02872640462982E-03 -1.70939398933564E-03  2.00588554617193E-03
 -8.02872640462982E-03 -1.70939398933564E-03 -2.00588554617193E-03
 -8.02872640462982E-03 -1.70939398933564E-03  2.00588554617193E-03
 -9.06022705299830E-04  1.17550033736823E-03 -4.48807993915778E-03
 -9.06022705299830E-04  1.17550033736823E-03  4.48807993915778E-03
  9.06022705299830E-04  1.17550033736823E-03  4.48807993915778E-03
  9.06022705299830E-04  1.17550033736823E-03 -4.48807993915778E-03
  3.01947129375464E-03  5.33893651967405E-04  2.21038649679295E-03
  3.01947129375464E-03  5.33893651967405E-04 -2.21038649679295E-03
 -3.01947129375464E-03  5.33893651967405E-04 -2.21038649679295E-03
 -3.01947129375464E-03  5.33893651967405E-04  2.21038649679295E-03
 Gradient of E wrt nuclear positions in reduced coordinates (gred)
 -7.70069953100853E-02  1.63955387549324E-02  1.92393178023298E-02
 -7.70069953100853E-02  1.63955387549324E-02 -1.92393178023298E-02
  7.70069953100853E-02  1.63955387549324E-02  1.92393178023298E-02
  7.70069953100853E-02  1.63955387549324E-02 -1.92393178023298E-02
  8.69005651726049E-03 -1.12747333019742E-02  4.30471202290205E-02
[...]
    5      0.00032128590686    -0.00018186782223     0.00015618770037
    6      0.00032128590686    -0.00018186782223    -0.00015618770037
    7     -0.00032128590686    -0.00018186782223    -0.00015618770037
    8     -0.00032128590686    -0.00018186782223     0.00015618770037
    9     -0.00024759500279     0.00122430796242     0.00153243326652
   10     -0.00024759500279     0.00122430796242    -0.00153243326652
   11      0.00024759500279     0.00122430796242    -0.00153243326652
   12      0.00024759500279     0.00122430796242     0.00153243326652
 frms,max,avg= 1.0490005E-03 2.0087884E-03   0.000E+00 -1.407E-05  0.000E+00 e/A
 length scales=  9.591433488838  9.591433488838  9.591433488838 bohr
              =  5.075568000000  5.075568000000  5.075568000000 angstroms
 prteigrs : about to open file o_EIG
 Fermi (or HOMO) energy (hartree) =   0.27923   Average Vxc (hartree)=  -0.44623
 Eigenvalues (hartree) for nkpt= 112  k points:
 kpt#   1, nband= 50, wtk=  0.00463, kpt=  0.0000  0.0000  0.0000 (reduced coord)
  -1.94365   -1.94290   -1.94283   -1.94281   -0.80681   -0.80624   -0.80624   -0.79601
  -0.79340   -0.79325   -0.79318   -0.79309   -0.79212   -0.78806   -0.78803   -0.78764
  -0.39868   -0.34532   -0.34127   -0.33598   -0.31908   -0.31090   -0.30980   -0.30944
   0.06812    0.07120    0.07502    0.10044    0.10850    0.10962    0.15924    0.15957
   0.15996    0.16051    0.17657    0.18955    0.19799    0.20533    0.20657    0.21436
   0.22827    0.23049    0.23436    0.23799    0.24523    0.26543    0.27887    0.27923
   0.45775    0.46514
 prteigrs : prtvol=0 or 1, do not print more k-points.
 

--- !EnergyTerms
iteration_state     : {dtset: 1, itime: 29, icycle: 1, }
comment             : Components of total free energy in Hartree
kinetic             :  1.46302050952306E+02
hartree             :  5.62516085468644E+01
xc                  : -9.09276023476688E+01
Ewald energy        : -2.69582685474683E+02
psp_core            :  1.49595106529080E+01
local_psp           : -2.06521970453039E+02
non_local_psp       : -9.12117921417880E+00
total_energy        : -3.58640267337491E+02
total_energy_eV     : -9.75909798217350E+03
band_energy         : -3.13539775711095E+01
...

 rms coord change=  2.0903E-02   atom, delta coord (reduced):
     1        0.016376395726      0.038439556921      0.030584132510
     2        0.016376395726      0.038439556921     -0.030584132510
     3       -0.016376395726      0.038439556921      0.030584132510
     4       -0.016376395726      0.038439556921     -0.030584132510
     5        0.015863554068     -0.019135152314      0.000035920120
     6        0.015863554068     -0.019135152314     -0.000035920120
     7       -0.015863554068     -0.019135152314     -0.000035920120
     8       -0.015863554068     -0.019135152314      0.000035920120
     9        0.016144100961     -0.019304404607      0.000071764084
    10        0.016144100961     -0.019304404607     -0.000071764084
    11       -0.016144100961     -0.019304404607     -0.000071764084
    12       -0.016144100961     -0.019304404607      0.000071764084
 
 Cartesian components of stress tensor (hartree/bohr^3)
  sigma(1 1)= -1.99814297E-04  sigma(3 2)=  0.00000000E+00
  sigma(2 2)= -2.21538959E-04  sigma(3 1)=  0.00000000E+00
  sigma(3 3)= -5.61866474E-04  sigma(2 1)=  0.00000000E+00
 
-Cartesian components of stress tensor (GPa)         [Pressure=  9.6424E+00 GPa]
- sigma(1 1)= -5.87873860E+00  sigma(3 2)=  0.00000000E+00
- sigma(2 2)= -6.51790012E+00  sigma(3 1)=  0.00000000E+00
- sigma(3 3)= -1.65306796E+01  sigma(2 1)=  0.00000000E+00
 
== END DATASET(S) ==============================================================
================================================================================
  
 -outvars: echo values of variables after computation  --------
            acell      9.5914334888E+00  9.5914334888E+00  9.5914334888E+00 Bohr
              amu      1.78490000E+02  1.59994000E+01
          chkprim           0
             ecut      2.50000000E+01 Hartree
           ecutsm      5.00000000E-01 Hartree
           etotal     -3.5864026734E+02
            fcart      1.6414221379E-05 -2.0272234824E-05  3.9064718454E-05
                       1.6414221379E-05 -2.0272234824E-05 -3.9064718454E-05
                      -1.6414221379E-05 -2.0272234824E-05  3.9064718454E-05
                      -1.6414221379E-05 -2.0272234824E-05 -3.9064718454E-05
                       6.2480166472E-06 -3.5367663401E-06  3.0373674386E-06
                       6.2480166472E-06 -3.5367663401E-06 -3.0373674386E-06
                      -6.2480166472E-06 -3.5367663401E-06 -3.0373674386E-06
                      -6.2480166472E-06 -3.5367663401E-06  3.0373674386E-06
                      -4.8149566045E-06  2.3809001164E-05  2.9801084814E-05
                      -4.8149566045E-06  2.3809001164E-05 -2.9801084814E-05
                       4.8149566045E-06  2.3809001164E-05 -2.9801084814E-05
                       4.8149566045E-06  2.3809001164E-05  2.9801084814E-05
-          fftalg         512
           ionmov           2
           istwfk        2    0    0    3    0    0    0    0    0    0
                         0    0    0    0    0    0    6    0    0    7
                         0    0    0    0    0    0    0    0    0    0
                         0    0    0    0    0    0    0    0    0    0
                         0    0    0    0    0    0    0    0    0    0
                       outvar_i_n : Printing only first  50 k-points.
              ixc          11
              kpt      0.00000000E+00  0.00000000E+00  0.00000000E+00
                       1.66666667E-01  0.00000000E+00  0.00000000E+00
                       3.33333333E-01  0.00000000E+00  0.00000000E+00
                       5.00000000E-01  0.00000000E+00  0.00000000E+00
                       0.00000000E+00  1.66666667E-01  0.00000000E+00
                       1.66666667E-01  1.66666667E-01  0.00000000E+00
                       3.33333333E-01  1.66666667E-01  0.00000000E+00
                       5.00000000E-01  1.66666667E-01  0.00000000E+00
                      -3.33333333E-01  1.66666667E-01  0.00000000E+00
                      -1.66666667E-01  1.66666667E-01  0.00000000E+00
                       0.00000000E+00  3.33333333E-01  0.00000000E+00
                       1.66666667E-01  3.33333333E-01  0.00000000E+00
                       3.33333333E-01  3.33333333E-01  0.00000000E+00
                       5.00000000E-01  3.33333333E-01  0.00000000E+00
                      -3.33333333E-01  3.33333333E-01  0.00000000E+00
                      -1.66666667E-01  3.33333333E-01  0.00000000E+00
                       0.00000000E+00  5.00000000E-01  0.00000000E+00
                       1.66666667E-01  5.00000000E-01  0.00000000E+00
                       3.33333333E-01  5.00000000E-01  0.00000000E+00
                       5.00000000E-01  5.00000000E-01  0.00000000E+00
                       0.00000000E+00  0.00000000E+00  1.66666667E-01
                       1.66666667E-01  0.00000000E+00  1.66666667E-01
                       3.33333333E-01  0.00000000E+00  1.66666667E-01
                       5.00000000E-01  0.00000000E+00  1.66666667E-01
                      -3.33333333E-01  0.00000000E+00  1.66666667E-01
                      -1.66666667E-01  0.00000000E+00  1.66666667E-01
                       0.00000000E+00  1.66666667E-01  1.66666667E-01
                       1.66666667E-01  1.66666667E-01  1.66666667E-01
                       3.33333333E-01  1.66666667E-01  1.66666667E-01
                       5.00000000E-01  1.66666667E-01  1.66666667E-01
                      -3.33333333E-01  1.66666667E-01  1.66666667E-01
                      -1.66666667E-01  1.66666667E-01  1.66666667E-01
                       0.00000000E+00  3.33333333E-01  1.66666667E-01
                       1.66666667E-01  3.33333333E-01  1.66666667E-01
                       3.33333333E-01  3.33333333E-01  1.66666667E-01
                       5.00000000E-01  3.33333333E-01  1.66666667E-01
                      -3.33333333E-01  3.33333333E-01  1.66666667E-01
                      -1.66666667E-01  3.33333333E-01  1.66666667E-01
                       0.00000000E+00  5.00000000E-01  1.66666667E-01
                       1.66666667E-01  5.00000000E-01  1.66666667E-01
                       3.33333333E-01  5.00000000E-01  1.66666667E-01
                       5.00000000E-01  5.00000000E-01  1.66666667E-01
                      -3.33333333E-01  5.00000000E-01  1.66666667E-01
                      -1.66666667E-01  5.00000000E-01  1.66666667E-01
                       0.00000000E+00 -3.33333333E-01  1.66666667E-01
                       1.66666667E-01 -3.33333333E-01  1.66666667E-01
                       3.33333333E-01 -3.33333333E-01  1.66666667E-01
                       5.00000000E-01 -3.33333333E-01  1.66666667E-01
                      -3.33333333E-01 -3.33333333E-01  1.66666667E-01
                      -1.66666667E-01 -3.33333333E-01  1.66666667E-01
                       outvar_i_n : Printing only first  50 k-points.
           kptopt           2
         kptrlatt        6    0    0      0    6    0      0    0    6
          kptrlen      5.75486009E+01
P           mkmem           4
            natom          12
            nband          50
            ngfft          45      45      45
             nkpt         112
            nstep         100
             nsym           4
            ntime        1000
           ntypat           2
              occ      2.000000  2.000000  2.000000  2.000000  2.000000  2.000000
                       2.000000  2.000000  2.000000  2.000000  2.000000  2.000000
                       2.000000  2.000000  2.000000  2.000000  2.000000  2.000000
                       2.000000  2.000000  2.000000  2.000000  2.000000  2.000000
                       2.000000  2.000000  2.000000  2.000000  2.000000  2.000000
                       2.000000  2.000000  2.000000  2.000000  2.000000  2.000000
                       2.000000  2.000000  2.000000  2.000000  2.000000  2.000000
                       2.000000  2.000000  2.000000  2.000000  2.000000  2.000000
                       0.000000  0.000000
        pawecutdg      2.50000000E+01 Hartree
         pawxcdev           0
          spgroup          29
           strten     -1.9981429738E-04 -2.2153895937E-04 -5.6186647382E-04
                       0.0000000000E+00  0.0000000000E+00  0.0000000000E+00
           symrel      1  0  0   0  1  0   0  0  1      -1  0  0   0  1  0   0  0 -1
                       1  0  0   0  1  0   0  0 -1      -1  0  0   0  1  0   0  0  1
            tnons      0.0000000  0.0000000  0.0000000     0.5000000  0.5000000  0.0000000
                       0.0000000  0.5000000  0.5000000     0.5000000  0.0000000  0.5000000
           toldfe      1.00000000E-10 Hartree
           tsmear      4.00000000E-02 Hartree
            typat      1  1  1  1  2  2  2  2  2  2  2  2
              wtk        0.00463    0.00926    0.00926    0.00463    0.00926    0.00926
                         0.00926    0.00926    0.00926    0.00926    0.00926    0.00926
                         0.00926    0.00926    0.00926    0.00926    0.00463    0.00926
                         0.00926    0.00463    0.00926    0.00926    0.00926    0.00926
                         0.00926    0.00926    0.00926    0.00926    0.00926    0.00926
                         0.00926    0.00926    0.00926    0.00926    0.00926    0.00926
                         0.00926    0.00926    0.00926    0.00926    0.00926    0.00926
                         0.00926    0.00926    0.00926    0.00926    0.00926    0.00926
                         0.00926    0.00926
                       outvars : Printing only first  50 k-points.
           xangst      8.3119510100E-02  1.9510258504E-01  1.5523184428E-01
                       8.3119510100E-02  2.7328865850E+00  2.3825521557E+00
                       2.4546644899E+00  1.9510258504E-01  2.6930158443E+00
                       2.4546644899E+00  2.7328865850E+00 -1.5523184428E-01
                       1.0613814327E+00  1.4487825026E+00  3.7391580035E+00
                       1.0613814327E+00  3.9865665026E+00  3.8741939965E+00
                       1.4764025673E+00  3.9865665026E+00  1.3364099965E+00
                       1.4764025673E+00  1.4487825026E+00  1.2013740035E+00
                       4.1766435970E+00  8.9389891240E-01  1.8759631477E+00
                       4.1766435970E+00  3.4316829124E+00  6.6182085226E-01
                       3.4367084030E+00  3.4316829124E+00  3.1996048523E+00
                       3.4367084030E+00  8.9389891240E-01  4.4137471477E+00
            xcart      1.5707311039E-01  3.6869045355E-01  2.9334567278E-01
                       1.5707311039E-01  5.1644071980E+00  4.5023710716E+00
                       4.6386436340E+00  3.6869045355E-01  5.0890624172E+00
                       4.6386436340E+00  5.1644071980E+00 -2.9334567278E-01
                       2.0057202303E+00  2.7378021560E+00  7.0659845942E+00
                       2.0057202303E+00  7.5335189004E+00  7.3211656390E+00
                       2.7899965142E+00  7.5335189004E+00  2.5254488946E+00
                       2.7899965142E+00  2.7378021560E+00  2.2702678498E+00
                       7.8927125529E+00  1.6892241349E+00  3.5450565846E+00
                       7.8927125529E+00  6.4849408793E+00  1.2506601598E+00
                       6.4944376803E+00  6.4849408793E+00  6.0463769042E+00
                       6.4944376803E+00  1.6892241349E+00  8.3407733290E+00
             xred      1.6376395726E-02  3.8439556921E-02  3.0584132510E-02
                       1.6376395726E-02  5.3843955692E-01  4.6941586749E-01
                       4.8362360427E-01  3.8439556921E-02  5.3058413251E-01
                       4.8362360427E-01  5.3843955692E-01 -3.0584132510E-02
                       2.0911579407E-01  2.8544243769E-01  7.3669745012E-01
                       2.0911579407E-01  7.8544243769E-01  7.6330254988E-01
                       2.9088420593E-01  7.8544243769E-01  2.6330254988E-01
                       2.9088420593E-01  2.8544243769E-01  2.3669745012E-01
                       8.2289186096E-01  1.7611800539E-01  3.6960654408E-01
                       8.2289186096E-01  6.7611800539E-01  1.3039345592E-01
                       6.7710813904E-01  6.7611800539E-01  6.3039345592E-01
                       6.7710813904E-01  1.7611800539E-01  8.6960654408E-01
            znucl       72.00000    8.00000
 
================================================================================


- Timing analysis has been suppressed with timopt=0



================================================================================

 Suggested references for the acknowledgment of ABINIT usage.

 The users of ABINIT have little formal obligations with respect to the ABINIT group
 (those specified in the GNU General Public License, http://www.gnu.org/copyleft/gpl.txt).
 However, it is common practice in the scientific literature,
 to acknowledge the efforts of people that have made the research possible.
 In this spirit, please find below suggested citations of work written by ABINIT developers,
 corresponding to implementations inside of ABINIT that you have used in the present run.
 Note also that it will be of great value to readers of publications presenting these results,
 to read papers enabling them to understand the theoretical formalism and details
 of the ABINIT implementation.
 For information on why they are suggested, see also https://docs.abinit.org/theory/acknowledgments.
-
- [1] Specification of an extensible and portable file format for electronic structure and crystallographic data
- X. Gonze, C.-O. Almbladh, A. Cucca, D. Caliste, C. Freysoldt, M. Marques, V. Olevano, Y. Pouillon, M.J. Verstraete,
- Comput. Material Science 43, 1056 (2008).
- Comment: to be cited in case the ETSF_IO file format is used, i.e. iomode=3.
- DOI and bibtex: see https://docs.abinit.org/theory/bibliography/#gonze2008
-
- [2] The Abinit project: Impact, environment and recent developments.
- Computer Phys. Comm. 248, 107042 (2020).
- X.Gonze, B. Amadon, G. Antonius, F.Arnardi, L.Baguet, J.-M.Beuken,
- J.Bieder, F.Bottin, J.Bouchet, E.Bousquet, N.Brouwer, F.Bruneval,
- G.Brunin, T.Cavignac, J.-B. Charraud, Wei Chen, M.Cote, S.Cottenier,
- J.Denier, G.Geneste, Ph.Ghosez, M.Giantomassi, Y.Gillet, O.Gingras,
- D.R.Hamann, G.Hautier, Xu He, N.Helbig, N.Holzwarth, Y.Jia, F.Jollet,
- W.Lafargue-Dit-Hauret, K.Lejaeghere, M.A.L.Marques, A.Martin, C.Martins,
- H.P.C. Miranda, F.Naccarato, K. Persson, G.Petretto, V.Planes, Y.Pouillon,
- S.Prokhorenko, F.Ricci, G.-M.Rignanese, A.H.Romero, M.M.Schmitt, M.Torrent,
- M.J.van Setten, B.Van Troeye, M.J.Verstraete, G.Zerah and J.W.Zwanzig
- Comment: the fifth generic paper describing the ABINIT project.
- Note that a version of this paper, that is not formatted for Computer Phys. Comm. 
- is available at https://www.abinit.org/sites/default/files/ABINIT20.pdf .
- The licence allows the authors to put it on the Web.
- DOI and bibtex: see https://docs.abinit.org/theory/bibliography/#gonze2020
-
- [3] Optimized norm-conserving Vanderbilt pseudopotentials.
- D.R. Hamann, Phys. Rev. B 88, 085117 (2013).
- Comment: Some pseudopotential generated using the ONCVPSP code were used.
- DOI and bibtex: see https://docs.abinit.org/theory/bibliography/#hamann2013
-
- [4] ABINIT: Overview, and focus on selected capabilities
- J. Chem. Phys. 152, 124102 (2020).
- A. Romero, D.C. Allan, B. Amadon, G. Antonius, T. Applencourt, L.Baguet,
- J.Bieder, F.Bottin, J.Bouchet, E.Bousquet, F.Bruneval,
- G.Brunin, D.Caliste, M.Cote,
- J.Denier, C. Dreyer, Ph.Ghosez, M.Giantomassi, Y.Gillet, O.Gingras,
- D.R.Hamann, G.Hautier, F.Jollet, G. Jomard,
- A.Martin, 
- H.P.C. Miranda, F.Naccarato, G.Petretto, N.A. Pike, V.Planes,
- S.Prokhorenko, T. Rangel, F.Ricci, G.-M.Rignanese, M.Royo, M.Stengel, M.Torrent,
- M.J.van Setten, B.Van Troeye, M.J.Verstraete, J.Wiktor, J.W.Zwanziger, and X.Gonze.
- Comment: a global overview of ABINIT, with focus on selected capabilities .
- Note that a version of this paper, that is not formatted for J. Chem. Phys 
- is available at https://www.abinit.org/sites/default/files/ABINIT20_JPC.pdf .
- The licence allows the authors to put it on the Web.
- DOI and bibtex: see https://docs.abinit.org/theory/bibliography/#romero2020
-
- [5] Recent developments in the ABINIT software package.
- Computer Phys. Comm. 205, 106 (2016).
- X.Gonze, F.Jollet, F.Abreu Araujo, D.Adams, B.Amadon, T.Applencourt,
- C.Audouze, J.-M.Beuken, J.Bieder, A.Bokhanchuk, E.Bousquet, F.Bruneval
- D.Caliste, M.Cote, F.Dahm, F.Da Pieve, M.Delaveau, M.Di Gennaro,
- B.Dorado, C.Espejo, G.Geneste, L.Genovese, A.Gerossier, M.Giantomassi,
- Y.Gillet, D.R.Hamann, L.He, G.Jomard, J.Laflamme Janssen, S.Le Roux,
- A.Levitt, A.Lherbier, F.Liu, I.Lukacevic, A.Martin, C.Martins,
- M.J.T.Oliveira, S.Ponce, Y.Pouillon, T.Rangel, G.-M.Rignanese,
- A.H.Romero, B.Rousseau, O.Rubel, A.A.Shukri, M.Stankovski, M.Torrent,
- M.J.Van Setten, B.Van Troeye, M.J.Verstraete, D.Waroquier, J.Wiktor,
- B.Xu, A.Zhou, J.W.Zwanziger.
- Comment: the fourth generic paper describing the ABINIT project.
- Note that a version of this paper, that is not formatted for Computer Phys. Comm. 
- is available at https://www.abinit.org/sites/default/files/ABINIT16.pdf .
- The licence allows the authors to put it on the Web.
- DOI and bibtex: see https://docs.abinit.org/theory/bibliography/#gonze2016
-
- Proc.   0 individual time (sec): cpu=       1954.8  wall=       1965.5
 
================================================================================
 
 Calculation completed.
.Delivered   0 WARNINGs and   0 COMMENTs to log file.
+Overall time at end (sec) : cpu=      70705.5  wall=      70758.3
