
.Version 9.4.1 of ABINIT 
.(MPI version, prepared for a x86_64_linux_intel2021.2 computer) 

.Copyright (C) 1998-2021 ABINIT group . 
 ABINIT comes with ABSOLUTELY NO WARRANTY.
 It is free software, and you are welcome to redistribute it
 under certain conditions (GNU General Public License,
 see ~abinit/COPYING or http://www.gnu.org/copyleft/gpl.txt).

 ABINIT is a project of the Universite Catholique de Louvain,
 Corning Inc. and other collaborators, see ~abinit/doc/developers/contributors.txt .
 Please read https://docs.abinit.org/theory/acknowledgments for suggested
 acknowledgments of the ABINIT effort.
 For more information, see https://www.abinit.org .

.Starting date : Tue 27 Jul 2021.
- ( at 13h51 )
  
- input  file    -> MODE2_19_21_22total
- output file    -> MODE2_19_21_22total.abo
- root for input  files -> i
- root for output files -> o
 
 
 Symmetries : space group Pc a 2_1 (# 29); Bravais oP (primitive ortho.)
================================================================================
 Values of the parameters that define the memory need of the present run
     intxc =       0    ionmov =       0      iscf =       7    lmnmax =       8
     lnmax =       8     mgfft =      45  mpssoang =       4    mqgrid =    3001
     natom =      12  nloc_mem =       1    nspden =       1   nspinor =       1
    nsppol =       1      nsym =       4    n1xccc =    2501    ntypat =       2
    occopt =       1   xclevel =       2
-    mband =          50        mffmem =           1         mkmem =           4
       mpw =        5280          nfft =       91125          nkpt =         112
================================================================================
P This job should need less than                      47.640 Mbytes of memory.
  Rough estimation (10% accuracy) of disk space for files :
_ WF disk file :    451.174 Mbytes ; DEN or POT disk file :      0.697 Mbytes.
================================================================================
 
--------------------------------------------------------------------------------
------------- Echo of variables that govern the present computation ------------
--------------------------------------------------------------------------------
-
- outvars: echo of selected default values                                      
-   iomode0 =  3 , fftalg0 =512 , wfoptalg0 =  0
-
- outvars: echo of global parameters not present in the input file              
-  max_nthreads =    0
-
 -outvars: echo values of preprocessed input variables --------
            acell      9.5914334888E+00  9.5914334888E+00  9.5914334888E+00 Bohr
              amu      1.78490000E+02  1.59994000E+01
          chkprim           0
             ecut      2.50000000E+01 Hartree
           ecutsm      5.00000000E-01 Hartree
-          fftalg         512
           istwfk        2    0    0    3    0    0    0    0    0    0
                         0    0    0    0    0    0    6    0    0    7
                         0    0    0    0    0    0    0    0    0    0
                         0    0    0    0    0    0    0    0    0    0
                         0    0    0    0    0    0    0    0    0    0
                       outvar_i_n : Printing only first  50 k-points.
              ixc          11
              kpt      0.00000000E+00  0.00000000E+00  0.00000000E+00
                       1.66666667E-01  0.00000000E+00  0.00000000E+00
                       3.33333333E-01  0.00000000E+00  0.00000000E+00
                       5.00000000E-01  0.00000000E+00  0.00000000E+00
                       0.00000000E+00  1.66666667E-01  0.00000000E+00
                       1.66666667E-01  1.66666667E-01  0.00000000E+00
                       3.33333333E-01  1.66666667E-01  0.00000000E+00
                       5.00000000E-01  1.66666667E-01  0.00000000E+00
                      -3.33333333E-01  1.66666667E-01  0.00000000E+00
                      -1.66666667E-01  1.66666667E-01  0.00000000E+00
                       0.00000000E+00  3.33333333E-01  0.00000000E+00
                       1.66666667E-01  3.33333333E-01  0.00000000E+00
                       3.33333333E-01  3.33333333E-01  0.00000000E+00
                       5.00000000E-01  3.33333333E-01  0.00000000E+00
                      -3.33333333E-01  3.33333333E-01  0.00000000E+00
                      -1.66666667E-01  3.33333333E-01  0.00000000E+00
                       0.00000000E+00  5.00000000E-01  0.00000000E+00
                       1.66666667E-01  5.00000000E-01  0.00000000E+00
                       3.33333333E-01  5.00000000E-01  0.00000000E+00
                       5.00000000E-01  5.00000000E-01  0.00000000E+00
                       0.00000000E+00  0.00000000E+00  1.66666667E-01
                       1.66666667E-01  0.00000000E+00  1.66666667E-01
                       3.33333333E-01  0.00000000E+00  1.66666667E-01
                       5.00000000E-01  0.00000000E+00  1.66666667E-01
                      -3.33333333E-01  0.00000000E+00  1.66666667E-01
                      -1.66666667E-01  0.00000000E+00  1.66666667E-01
                       0.00000000E+00  1.66666667E-01  1.66666667E-01
                       1.66666667E-01  1.66666667E-01  1.66666667E-01
                       3.33333333E-01  1.66666667E-01  1.66666667E-01
                       5.00000000E-01  1.66666667E-01  1.66666667E-01
                      -3.33333333E-01  1.66666667E-01  1.66666667E-01
                      -1.66666667E-01  1.66666667E-01  1.66666667E-01
                       0.00000000E+00  3.33333333E-01  1.66666667E-01
                       1.66666667E-01  3.33333333E-01  1.66666667E-01
                       3.33333333E-01  3.33333333E-01  1.66666667E-01
                       5.00000000E-01  3.33333333E-01  1.66666667E-01
                      -3.33333333E-01  3.33333333E-01  1.66666667E-01
                      -1.66666667E-01  3.33333333E-01  1.66666667E-01
                       0.00000000E+00  5.00000000E-01  1.66666667E-01
                       1.66666667E-01  5.00000000E-01  1.66666667E-01
                       3.33333333E-01  5.00000000E-01  1.66666667E-01
                       5.00000000E-01  5.00000000E-01  1.66666667E-01
                      -3.33333333E-01  5.00000000E-01  1.66666667E-01
                      -1.66666667E-01  5.00000000E-01  1.66666667E-01
                       0.00000000E+00 -3.33333333E-01  1.66666667E-01
                       1.66666667E-01 -3.33333333E-01  1.66666667E-01
                       3.33333333E-01 -3.33333333E-01  1.66666667E-01
                       5.00000000E-01 -3.33333333E-01  1.66666667E-01
                      -3.33333333E-01 -3.33333333E-01  1.66666667E-01
                      -1.66666667E-01 -3.33333333E-01  1.66666667E-01
                       outvar_i_n : Printing only first  50 k-points.
           kptopt           2
         kptrlatt        6    0    0      0    6    0      0    0    6
          kptrlen      5.75486009E+01
P           mkmem           4
            natom          12
            nband          50
            ngfft          45      45      45
             nkpt         112
            nstep         100
             nsym           4
           ntypat           2
              occ      2.000000  2.000000  2.000000  2.000000  2.000000  2.000000
                       2.000000  2.000000  2.000000  2.000000  2.000000  2.000000
                       2.000000  2.000000  2.000000  2.000000  2.000000  2.000000
                       2.000000  2.000000  2.000000  2.000000  2.000000  2.000000
                       2.000000  2.000000  2.000000  2.000000  2.000000  2.000000
                       2.000000  2.000000  2.000000  2.000000  2.000000  2.000000
                       2.000000  2.000000  2.000000  2.000000  2.000000  2.000000
                       2.000000  2.000000  2.000000  2.000000  2.000000  2.000000
                       0.000000  0.000000
        pawecutdg      2.50000000E+01 Hartree
         pawxcdev           0
          spgroup          29
           symrel      1  0  0   0  1  0   0  0  1      -1  0  0   0  1  0   0  0 -1
                       1  0  0   0  1  0   0  0 -1      -1  0  0   0  1  0   0  0  1
            tnons      0.0000000  0.0000000  0.0000000     0.5000000  0.5000000  0.0000000
                       0.0000000  0.5000000  0.5000000     0.5000000  0.0000000  0.5000000
           toldfe      1.00000000E-10 Hartree
           tsmear      4.00000000E-02 Hartree
            typat      1  1  1  1  2  2  2  2  2  2  2  2
              wtk        0.00463    0.00926    0.00926    0.00463    0.00926    0.00926
                         0.00926    0.00926    0.00926    0.00926    0.00926    0.00926
                         0.00926    0.00926    0.00926    0.00926    0.00463    0.00926
                         0.00926    0.00463    0.00926    0.00926    0.00926    0.00926
                         0.00926    0.00926    0.00926    0.00926    0.00926    0.00926
                         0.00926    0.00926    0.00926    0.00926    0.00926    0.00926
                         0.00926    0.00926    0.00926    0.00926    0.00926    0.00926
                         0.00926    0.00926    0.00926    0.00926    0.00926    0.00926
                         0.00926    0.00926
                       outvars : Printing only first  50 k-points.
           xangst      0.0000000000E+00  0.0000000000E+00  0.0000000000E+00
                       0.0000000000E+00  2.5377840000E+00  2.5377840000E+00
                       2.5377840000E+00  0.0000000000E+00  2.5377840000E+00
                       2.5377840000E+00  2.5377840000E+00  0.0000000000E+00
                       9.8086488527E-01  1.5459042693E+00  3.7389756885E+00
                       9.8086488527E-01  4.0836882693E+00  3.8743763115E+00
                       1.5569191147E+00  4.0836882693E+00  1.3365923115E+00
                       1.5569191147E+00  1.5459042693E+00  1.2011916885E+00
                       4.0947031147E+00  9.9187973068E-01  1.8755989043E+00
                       4.0947031147E+00  3.5296637307E+00  6.6218509574E-01
                       3.5186488853E+00  3.5296637307E+00  3.1999690957E+00
                       3.5186488853E+00  9.9187973068E-01  4.4133829043E+00
            xcart      0.0000000000E+00  0.0000000000E+00  0.0000000000E+00
                       0.0000000000E+00  4.7957167444E+00  4.7957167444E+00
                       4.7957167444E+00  0.0000000000E+00  4.7957167444E+00
                       4.7957167444E+00  4.7957167444E+00  0.0000000000E+00
                       1.8535660065E+00  2.9213356967E+00  7.0656400688E+00
                       1.8535660065E+00  7.7170524411E+00  7.3215101645E+00
                       2.9421507379E+00  7.7170524411E+00  2.5257934201E+00
                       2.9421507379E+00  2.9213356967E+00  2.2699233244E+00
                       7.7378674823E+00  1.8743810477E+00  3.5443682642E+00
                       7.7378674823E+00  6.6700977922E+00  1.2513484802E+00
                       6.6492827509E+00  6.6700977922E+00  6.0470652247E+00
                       6.6492827509E+00  1.8743810477E+00  8.3400850086E+00
             xred      0.0000000000E+00  0.0000000000E+00  0.0000000000E+00
                       0.0000000000E+00  5.0000000000E-01  5.0000000000E-01
                       5.0000000000E-01  0.0000000000E+00  5.0000000000E-01
                       5.0000000000E-01  5.0000000000E-01  0.0000000000E+00
                       1.9325224000E-01  3.0457759000E-01  7.3666153000E-01
                       1.9325224000E-01  8.0457759000E-01  7.6333847000E-01
                       3.0674776000E-01  8.0457759000E-01  2.6333847000E-01
                       3.0674776000E-01  3.0457759000E-01  2.3666153000E-01
                       8.0674776000E-01  1.9542241000E-01  3.6953478000E-01
                       8.0674776000E-01  6.9542241000E-01  1.3046522000E-01
                       6.9325224000E-01  6.9542241000E-01  6.3046522000E-01
                       6.9325224000E-01  1.9542241000E-01  8.6953478000E-01
            znucl       72.00000    8.00000
 
================================================================================
 
 chkinp: Checking input parameters for consistency.
 
================================================================================
== DATASET  1 ==================================================================
-   mpi_nproc: 36, omp_nthreads: -1 (-1 if OMP is not activated)
-    --> not optimal distribution: autoparal keyword recommended in input file <--
 

--- !DatasetInfo
iteration_state: {dtset: 1, }
dimensions: {natom: 12, nkpt: 112, mband: 50, nsppol: 1, nspinor: 1, nspden: 1, mpw: 5280, }
cutoff_energies: {ecut:  25.0, pawecutdg:  25.0, }
electrons: {nelect:   9.60000000E+01, charge:   0.00000000E+00, occopt:   1.00000000E+00, tsmear:   4.00000000E-02, }
meta: {optdriver: 0, ionmov: 0, optcell: 0, iscf: 7, paral_kgb: 0, }
...

 Exchange-correlation functional for the present dataset will be:
  GGA: Perdew-Burke-Ernzerhof functional - ixc=11
 Citation for XC functional:
  J.P.Perdew, K.Burke, M.Ernzerhof, PRL 77, 3865 (1996)
 
 Real(R)+Recip(G) space primitive vectors, cartesian coordinates (Bohr,Bohr^-1):
 R(1)=  9.5914335  0.0000000  0.0000000  G(1)=  0.1042597  0.0000000  0.0000000
 R(2)=  0.0000000  9.5914335  0.0000000  G(2)=  0.0000000  0.1042597  0.0000000
 R(3)=  0.0000000  0.0000000  9.5914335  G(3)=  0.0000000  0.0000000  0.1042597
 Unit cell volume ucvol=  8.8236964E+02 bohr^3
 Angles (23,13,12)=  9.00000000E+01  9.00000000E+01  9.00000000E+01 degrees
 
 getcut: wavevector=  0.0000  0.0000  0.0000  ngfft=  45  45  45
         ecut(hartree)=     25.000   => boxcut(ratio)=   2.03814
 
--- Pseudopotential description ------------------------------------------------
- pspini: atom type   1  psp file is /workspace/jiahaoz/PACKAGE_INSTALL/abinit-9.4.1/pbe_s_sr/Hf.psp8
- pspatm: opening atomic psp file    /workspace/jiahaoz/PACKAGE_INSTALL/abinit-9.4.1/pbe_s_sr/Hf.psp8
- Hf    ONCVPSP  r_core=  1.72  1.72  1.72  2.43
- 72.00000  12.00000    160625                znucl, zion, pspdat
    8   11    3    4       600   0.00000      pspcod,pspxc,lmax,lloc,mmax,r2well
    5.99000000000000    5.40000000000000    0.00000000000000   rchrg,fchrg,qchrg
     nproj     2     2     2     2
     extension_switch     1
  pspatm : epsatm=   21.98649506
         --- l  ekb(1:nproj) -->
             0    5.812335   -0.521211
             1   -3.038329    2.466565
             2    2.060039    0.471534
             3    9.947446    0.353012
 pspatm: atomic psp has been read  and splines computed
 
- pspini: atom type   2  psp file is /workspace/jiahaoz/PACKAGE_INSTALL/abinit-9.4.1/pbe_s_sr/O.psp8
- pspatm: opening atomic psp file    /workspace/jiahaoz/PACKAGE_INSTALL/abinit-9.4.1/pbe_s_sr/O.psp8
- O     ONCVPSP  r_core=  1.36  1.46  1.26
-  8.00000   6.00000    151103                znucl, zion, pspdat
    8   11    2    4       600   0.00000      pspcod,pspxc,lmax,lloc,mmax,r2well
    5.99000000000000    4.00000000000000    0.00000000000000   rchrg,fchrg,qchrg
     nproj     2     2     1
     extension_switch     1
  pspatm : epsatm=    6.19401560
         --- l  ekb(1:nproj) -->
             0    5.257212    0.704241
             1   -5.135443   -1.451781
             2   -4.371486
 pspatm: atomic psp has been read  and splines computed
 
   1.31998181E+04                                ecore*ucvol(ha*bohr**3)
--------------------------------------------------------------------------------
 
_setup2: Arith. and geom. avg. npw (full set) are    5268.875    5268.869
 
================================================================================

--- !BeginCycle
iteration_state: {dtset: 1, }
solver: {iscf: 7, nstep: 100, nline: 4, wfoptalg: 0, }
tolerances: {toldfe: 1.00E-10, }
...
 
     iter   Etot(hartree)      deltaE(h)  residm     vres2
 ETOT  1  -357.45918645923    -3.575E+02 3.220E-01 1.285E+03
 ETOT  2  -357.42950308875     2.968E-02 3.165E-02 1.527E+03
 ETOT  3  -358.50409006353    -1.075E+00 8.439E-03 3.411E+01
 ETOT  4  -358.52338387477    -1.929E-02 7.895E-03 1.719E+00
 ETOT  5  -358.52405709948    -6.732E-04 2.112E-03 5.771E-01
 ETOT  6  -358.52426325095    -2.062E-04 4.762E-03 5.561E-03
 ETOT  7  -358.52426545410    -2.203E-06 1.651E-03 2.756E-04
 ETOT  8  -358.52426554709    -9.299E-08 2.342E-03 1.178E-05
 ETOT  9  -358.52426555287    -5.785E-09 7.972E-04 7.708E-07
 ETOT 10  -358.52426555306    -1.912E-10 1.499E-03 4.010E-08
 ETOT 11  -358.52426555307    -4.718E-12 5.167E-04 2.447E-09
 ETOT 12  -358.52426555307     1.648E-12 1.079E-03 1.620E-10
 
 At SCF step   12, etot is converged : 
  for the second time, diff in etot=  1.648E-12 < toldfe=  1.000E-10
 
 Cartesian components of stress tensor (hartree/bohr^3)
  sigma(1 1)= -8.16904591E-04  sigma(3 2)=  0.00000000E+00
  sigma(2 2)= -9.36060033E-04  sigma(3 1)=  0.00000000E+00
  sigma(3 3)= -1.09812131E-03  sigma(2 1)=  0.00000000E+00
 

--- !ResultsGS
iteration_state: {dtset: 1, }
comment   : Summary of ground state results
lattice_vectors:
- [  9.5914335,   0.0000000,   0.0000000, ]
- [  0.0000000,   9.5914335,   0.0000000, ]
- [  0.0000000,   0.0000000,   9.5914335, ]
lattice_lengths: [   9.59143,    9.59143,    9.59143, ]
lattice_angles: [ 90.000,  90.000,  90.000, ] # degrees, (23, 13, 12)
lattice_volume:   8.8236964E+02
convergence: {deltae:  1.648E-12, res2:  1.620E-10, residm:  1.079E-03, diffor: null, }
etotal    :  -3.58524266E+02
entropy   :   0.00000000E+00
fermie    :   2.76572946E-01
cartesian_stress_tensor: # hartree/bohr^3
- [ -8.16904591E-04,   0.00000000E+00,   0.00000000E+00, ]
- [  0.00000000E+00,  -9.36060033E-04,   0.00000000E+00, ]
- [  0.00000000E+00,   0.00000000E+00,  -1.09812131E-03, ]
pressure_GPa:   2.7961E+01
xred      :
- [  0.0000E+00,   0.0000E+00,   0.0000E+00, Hf]
- [  0.0000E+00,   5.0000E-01,   5.0000E-01, Hf]
- [  5.0000E-01,   0.0000E+00,   5.0000E-01, Hf]
- [  5.0000E-01,   5.0000E-01,   0.0000E+00, Hf]
- [  1.9325E-01,   3.0458E-01,   7.3666E-01,  O]
- [  1.9325E-01,   8.0458E-01,   7.6334E-01,  O]
- [  3.0675E-01,   8.0458E-01,   2.6334E-01,  O]
- [  3.0675E-01,   3.0458E-01,   2.3666E-01,  O]
- [  8.0675E-01,   1.9542E-01,   3.6953E-01,  O]
- [  8.0675E-01,   6.9542E-01,   1.3047E-01,  O]
- [  6.9325E-01,   6.9542E-01,   6.3047E-01,  O]
- [  6.9325E-01,   1.9542E-01,   8.6953E-01,  O]
cartesian_forces: # hartree/bohr
- [  1.82887263E-02,   5.45321252E-02,   5.70792276E-02, ]
- [  1.82887263E-02,   5.45321252E-02,  -5.70792276E-02, ]
- [ -1.82887263E-02,   5.45321252E-02,   5.70792276E-02, ]
- [ -1.82887263E-02,   5.45321252E-02,  -5.70792276E-02, ]
- [  4.99645797E-02,  -4.16418172E-02,   4.17376566E-02, ]
- [  4.99645797E-02,  -4.16418172E-02,  -4.17376566E-02, ]
- [ -4.99645797E-02,  -4.16418172E-02,  -4.17376566E-02, ]
- [ -4.99645797E-02,  -4.16418172E-02,   4.17376566E-02, ]
- [  1.09881207E-02,  -1.28903080E-02,  -2.36361715E-02, ]
- [  1.09881207E-02,  -1.28903080E-02,   2.36361715E-02, ]
- [ -1.09881207E-02,  -1.28903080E-02,   2.36361715E-02, ]
- [ -1.09881207E-02,  -1.28903080E-02,  -2.36361715E-02, ]
force_length_stats: {min:   2.90786424E-02, max:   8.10325145E-02, mean:   6.24644387E-02, }
...

 Integrated electronic density in atomic spheres:
 ------------------------------------------------
 Atom  Sphere_radius  Integrated_density
    1        2.00000          8.41515943
    2        2.00000          8.44061473
    3        2.00000          8.44067117
    4        2.00000          8.44076062
    5        2.00000          6.45050173
    6        2.00000          6.44578896
    7        2.00000          6.44943201
    8        2.00000          6.44841182
    9        2.00000          6.43490214
   10        2.00000          6.44388125
   11        2.00000          6.43622710
   12        2.00000          6.44088610
================================================================================
 
 ----iterations are completed or convergence reached----
 
 Mean square residual over all n,k,spin=   18.783E-07; max=  10.794E-04
 reduced coordinates (array xred) for   12 atoms
       0.000000000000      0.000000000000      0.000000000000
       0.000000000000      0.500000000000      0.500000000000
       0.500000000000      0.000000000000      0.500000000000
       0.500000000000      0.500000000000      0.000000000000
       0.193252240000      0.304577590000      0.736661530000
       0.193252240000      0.804577590000      0.763338470000
       0.306747760000      0.804577590000      0.263338470000
       0.306747760000      0.304577590000      0.236661530000
       0.806747760000      0.195422410000      0.369534780000
       0.806747760000      0.695422410000      0.130465220000
       0.693252240000      0.695422410000      0.630465220000
       0.693252240000      0.195422410000      0.869534780000
 rms dE/dt=  3.6988E-01; max dE/dt=  5.4747E-01; dE/dt below (all hartree)
    1      -0.175415101968     -0.523035401991     -0.547471615000
    2      -0.175415101968     -0.523035401991      0.547471615000
    3       0.175415101968     -0.523035401991     -0.547471615000
    4       0.175415101968     -0.523035401991      0.547471615000
    5      -0.479231943251      0.399410570300     -0.400323956934
    6      -0.479231943251      0.399410570300      0.400323956934
    7       0.479231943251      0.399410570300      0.400323956934
    8       0.479231943251      0.399410570300     -0.400323956934
    9      -0.105391829217      0.123642381908      0.226704767005
   10      -0.105391829217      0.123642381908     -0.226704767005
   11       0.105391829217      0.123642381908     -0.226704767005
   12       0.105391829217      0.123642381908      0.226704767005
 
 cartesian coordinates (angstrom) at end:
    1      0.00000000000000     0.00000000000000     0.00000000000000
    2      0.00000000000000     2.53778400000000     2.53778400000000
    3      2.53778400000000     0.00000000000000     2.53778400000000
    4      2.53778400000000     2.53778400000000     0.00000000000000
    5      0.98086488527232     1.54590426932112     3.73897568849904
    6      0.98086488527232     4.08368826932112     3.87437631150096
    7      1.55691911472768     4.08368826932112     1.33659231150096
    8      1.55691911472768     1.54590426932112     1.20119168849904
    9      4.09470311472768     0.99187973067888     1.87559890425504
   10      4.09470311472768     3.52966373067888     0.66218509574496
   11      3.51864888527232     3.52966373067888     3.19996909574496
   12      3.51864888527232     0.99187973067888     4.41338290425504
 
 cartesian forces (hartree/bohr) at end:
    1      0.01828872630684     0.05453212522111     0.05707922758751
    2      0.01828872630684     0.05453212522111    -0.05707922758751
    3     -0.01828872630684     0.05453212522111     0.05707922758751
    4     -0.01828872630684     0.05453212522111    -0.05707922758751
    5      0.04996457972716    -0.04164181722077     0.04173765656613
    6      0.04996457972716    -0.04164181722077    -0.04173765656613
    7     -0.04996457972716    -0.04164181722077    -0.04173765656613
    8     -0.04996457972716    -0.04164181722077     0.04173765656613
    9      0.01098812073705    -0.01289030800034    -0.02363617151372
   10      0.01098812073705    -0.01289030800034     0.02363617151372
   11     -0.01098812073705    -0.01289030800034     0.02363617151372
   12     -0.01098812073705    -0.01289030800034    -0.02363617151372
 frms,max,avg= 3.8563610E-02 5.7079228E-02   0.000E+00 -6.099E-07  0.000E+00 h/b
 
 cartesian forces (eV/Angstrom) at end:
    1      0.94044403985576     2.80415438912626     2.93513164796824
    2      0.94044403985576     2.80415438912626    -2.93513164796824
    3     -0.94044403985576     2.80415438912626     2.93513164796824
    4     -0.94044403985576     2.80415438912626    -2.93513164796824
    5      2.56928177610292    -2.14130815656544     2.14623641343878
    6      2.56928177610292    -2.14130815656544    -2.14623641343878
    7     -2.56928177610292    -2.14130815656544    -2.14623641343878
    8     -2.56928177610292    -2.14130815656544     2.14623641343878
    9      0.56503183890418    -0.66284623256082    -1.21542070520058
   10      0.56503183890418    -0.66284623256082     1.21542070520058
   11     -0.56503183890418    -0.66284623256082     1.21542070520058
   12     -0.56503183890418    -0.66284623256082    -1.21542070520058
 frms,max,avg= 1.9830204E+00 2.9351316E+00   0.000E+00 -3.136E-05  0.000E+00 e/A
 length scales=  9.591433488838  9.591433488838  9.591433488838 bohr
              =  5.075568000000  5.075568000000  5.075568000000 angstroms
 prteigrs : about to open file o_EIG
 Fermi (or HOMO) energy (hartree) =   0.27657   Average Vxc (hartree)=  -0.44438
 Eigenvalues (hartree) for nkpt= 112  k points:
 kpt#   1, nband= 50, wtk=  0.00463, kpt=  0.0000  0.0000  0.0000 (reduced coord)
  -1.93335   -1.93265   -1.93262   -1.93262   -0.80519   -0.80517   -0.80227   -0.79387
  -0.79182   -0.79056   -0.78884   -0.78841   -0.78606   -0.78364   -0.78300   -0.78294
  -0.39481   -0.35053   -0.33644   -0.33594   -0.31622   -0.30906   -0.30765   -0.30459
   0.06278    0.06658    0.07832    0.08782    0.10169    0.10203    0.15129    0.16286
   0.16569    0.16827    0.17061    0.17097    0.19064    0.19274    0.19455    0.20356
   0.21917    0.23229    0.24151    0.24690    0.25388    0.26319    0.26804    0.27657
   0.45490    0.46954
 prteigrs : prtvol=0 or 1, do not print more k-points.
 

--- !EnergyTerms
iteration_state     : {dtset: 1, }
comment             : Components of total free energy in Hartree
kinetic             :  1.47367723172722E+02
hartree             :  5.80725309421295E+01
xc                  : -9.11638061844633E+01
Ewald energy        : -2.67712273019797E+02
psp_core            :  1.49595106529080E+01
local_psp           : -2.10824519584712E+02
non_local_psp       : -9.22343153185372E+00
total_energy        : -3.58524265553066E+02
total_energy_eV     : -9.75594141308906E+03
band_energy         : -3.13532961123341E+01
...

 
 Cartesian components of stress tensor (hartree/bohr^3)
  sigma(1 1)= -8.16904591E-04  sigma(3 2)=  0.00000000E+00
  sigma(2 2)= -9.36060033E-04  sigma(3 1)=  0.00000000E+00
  sigma(3 3)= -1.09812131E-03  sigma(2 1)=  0.00000000E+00
 
-Cartesian components of stress tensor (GPa)         [Pressure=  2.7961E+01 GPa]
- sigma(1 1)= -2.40341588E+01  sigma(3 2)=  0.00000000E+00
- sigma(2 2)= -2.75398323E+01  sigma(3 1)=  0.00000000E+00
- sigma(3 3)= -3.23078389E+01  sigma(2 1)=  0.00000000E+00
 
== END DATASET(S) ==============================================================
================================================================================
  
 -outvars: echo values of variables after computation  --------
            acell      9.5914334888E+00  9.5914334888E+00  9.5914334888E+00 Bohr
              amu      1.78490000E+02  1.59994000E+01
          chkprim           0
             ecut      2.50000000E+01 Hartree
           ecutsm      5.00000000E-01 Hartree
           etotal     -3.5852426555E+02
            fcart      1.8288726307E-02  5.4532125221E-02  5.7079227588E-02
                       1.8288726307E-02  5.4532125221E-02 -5.7079227588E-02
                      -1.8288726307E-02  5.4532125221E-02  5.7079227588E-02
                      -1.8288726307E-02  5.4532125221E-02 -5.7079227588E-02
                       4.9964579727E-02 -4.1641817221E-02  4.1737656566E-02
                       4.9964579727E-02 -4.1641817221E-02 -4.1737656566E-02
                      -4.9964579727E-02 -4.1641817221E-02 -4.1737656566E-02
                      -4.9964579727E-02 -4.1641817221E-02  4.1737656566E-02
                       1.0988120737E-02 -1.2890308000E-02 -2.3636171514E-02
                       1.0988120737E-02 -1.2890308000E-02  2.3636171514E-02
                      -1.0988120737E-02 -1.2890308000E-02  2.3636171514E-02
                      -1.0988120737E-02 -1.2890308000E-02 -2.3636171514E-02
-          fftalg         512
           istwfk        2    0    0    3    0    0    0    0    0    0
                         0    0    0    0    0    0    6    0    0    7
                         0    0    0    0    0    0    0    0    0    0
                         0    0    0    0    0    0    0    0    0    0
                         0    0    0    0    0    0    0    0    0    0
                       outvar_i_n : Printing only first  50 k-points.
              ixc          11
              kpt      0.00000000E+00  0.00000000E+00  0.00000000E+00
                       1.66666667E-01  0.00000000E+00  0.00000000E+00
                       3.33333333E-01  0.00000000E+00  0.00000000E+00
                       5.00000000E-01  0.00000000E+00  0.00000000E+00
                       0.00000000E+00  1.66666667E-01  0.00000000E+00
                       1.66666667E-01  1.66666667E-01  0.00000000E+00
                       3.33333333E-01  1.66666667E-01  0.00000000E+00
                       5.00000000E-01  1.66666667E-01  0.00000000E+00
                      -3.33333333E-01  1.66666667E-01  0.00000000E+00
                      -1.66666667E-01  1.66666667E-01  0.00000000E+00
                       0.00000000E+00  3.33333333E-01  0.00000000E+00
                       1.66666667E-01  3.33333333E-01  0.00000000E+00
                       3.33333333E-01  3.33333333E-01  0.00000000E+00
                       5.00000000E-01  3.33333333E-01  0.00000000E+00
                      -3.33333333E-01  3.33333333E-01  0.00000000E+00
                      -1.66666667E-01  3.33333333E-01  0.00000000E+00
                       0.00000000E+00  5.00000000E-01  0.00000000E+00
                       1.66666667E-01  5.00000000E-01  0.00000000E+00
                       3.33333333E-01  5.00000000E-01  0.00000000E+00
                       5.00000000E-01  5.00000000E-01  0.00000000E+00
                       0.00000000E+00  0.00000000E+00  1.66666667E-01
                       1.66666667E-01  0.00000000E+00  1.66666667E-01
                       3.33333333E-01  0.00000000E+00  1.66666667E-01
                       5.00000000E-01  0.00000000E+00  1.66666667E-01
                      -3.33333333E-01  0.00000000E+00  1.66666667E-01
                      -1.66666667E-01  0.00000000E+00  1.66666667E-01
                       0.00000000E+00  1.66666667E-01  1.66666667E-01
                       1.66666667E-01  1.66666667E-01  1.66666667E-01
                       3.33333333E-01  1.66666667E-01  1.66666667E-01
                       5.00000000E-01  1.66666667E-01  1.66666667E-01
                      -3.33333333E-01  1.66666667E-01  1.66666667E-01
                      -1.66666667E-01  1.66666667E-01  1.66666667E-01
                       0.00000000E+00  3.33333333E-01  1.66666667E-01
                       1.66666667E-01  3.33333333E-01  1.66666667E-01
                       3.33333333E-01  3.33333333E-01  1.66666667E-01
                       5.00000000E-01  3.33333333E-01  1.66666667E-01
                      -3.33333333E-01  3.33333333E-01  1.66666667E-01
                      -1.66666667E-01  3.33333333E-01  1.66666667E-01
                       0.00000000E+00  5.00000000E-01  1.66666667E-01
                       1.66666667E-01  5.00000000E-01  1.66666667E-01
                       3.33333333E-01  5.00000000E-01  1.66666667E-01
                       5.00000000E-01  5.00000000E-01  1.66666667E-01
                      -3.33333333E-01  5.00000000E-01  1.66666667E-01
                      -1.66666667E-01  5.00000000E-01  1.66666667E-01
                       0.00000000E+00 -3.33333333E-01  1.66666667E-01
                       1.66666667E-01 -3.33333333E-01  1.66666667E-01
                       3.33333333E-01 -3.33333333E-01  1.66666667E-01
                       5.00000000E-01 -3.33333333E-01  1.66666667E-01
                      -3.33333333E-01 -3.33333333E-01  1.66666667E-01
                      -1.66666667E-01 -3.33333333E-01  1.66666667E-01
                       outvar_i_n : Printing only first  50 k-points.
           kptopt           2
         kptrlatt        6    0    0      0    6    0      0    0    6
          kptrlen      5.75486009E+01
P           mkmem           4
            natom          12
            nband          50
            ngfft          45      45      45
             nkpt         112
            nstep         100
             nsym           4
           ntypat           2
              occ      2.000000  2.000000  2.000000  2.000000  2.000000  2.000000
                       2.000000  2.000000  2.000000  2.000000  2.000000  2.000000
                       2.000000  2.000000  2.000000  2.000000  2.000000  2.000000
                       2.000000  2.000000  2.000000  2.000000  2.000000  2.000000
                       2.000000  2.000000  2.000000  2.000000  2.000000  2.000000
                       2.000000  2.000000  2.000000  2.000000  2.000000  2.000000
                       2.000000  2.000000  2.000000  2.000000  2.000000  2.000000
                       2.000000  2.000000  2.000000  2.000000  2.000000  2.000000
                       0.000000  0.000000
        pawecutdg      2.50000000E+01 Hartree
         pawxcdev           0
          spgroup          29
           strten     -8.1690459130E-04 -9.3606003318E-04 -1.0981213076E-03
                       0.0000000000E+00  0.0000000000E+00  0.0000000000E+00
           symrel      1  0  0   0  1  0   0  0  1      -1  0  0   0  1  0   0  0 -1
                       1  0  0   0  1  0   0  0 -1      -1  0  0   0  1  0   0  0  1
            tnons      0.0000000  0.0000000  0.0000000     0.5000000  0.5000000  0.0000000
                       0.0000000  0.5000000  0.5000000     0.5000000  0.0000000  0.5000000
           toldfe      1.00000000E-10 Hartree
           tsmear      4.00000000E-02 Hartree
            typat      1  1  1  1  2  2  2  2  2  2  2  2
              wtk        0.00463    0.00926    0.00926    0.00463    0.00926    0.00926
                         0.00926    0.00926    0.00926    0.00926    0.00926    0.00926
                         0.00926    0.00926    0.00926    0.00926    0.00463    0.00926
                         0.00926    0.00463    0.00926    0.00926    0.00926    0.00926
                         0.00926    0.00926    0.00926    0.00926    0.00926    0.00926
                         0.00926    0.00926    0.00926    0.00926    0.00926    0.00926
                         0.00926    0.00926    0.00926    0.00926    0.00926    0.00926
                         0.00926    0.00926    0.00926    0.00926    0.00926    0.00926
                         0.00926    0.00926
                       outvars : Printing only first  50 k-points.
           xangst      0.0000000000E+00  0.0000000000E+00  0.0000000000E+00
                       0.0000000000E+00  2.5377840000E+00  2.5377840000E+00
                       2.5377840000E+00  0.0000000000E+00  2.5377840000E+00
                       2.5377840000E+00  2.5377840000E+00  0.0000000000E+00
                       9.8086488527E-01  1.5459042693E+00  3.7389756885E+00
                       9.8086488527E-01  4.0836882693E+00  3.8743763115E+00
                       1.5569191147E+00  4.0836882693E+00  1.3365923115E+00
                       1.5569191147E+00  1.5459042693E+00  1.2011916885E+00
                       4.0947031147E+00  9.9187973068E-01  1.8755989043E+00
                       4.0947031147E+00  3.5296637307E+00  6.6218509574E-01
                       3.5186488853E+00  3.5296637307E+00  3.1999690957E+00
                       3.5186488853E+00  9.9187973068E-01  4.4133829043E+00
            xcart      0.0000000000E+00  0.0000000000E+00  0.0000000000E+00
                       0.0000000000E+00  4.7957167444E+00  4.7957167444E+00
                       4.7957167444E+00  0.0000000000E+00  4.7957167444E+00
                       4.7957167444E+00  4.7957167444E+00  0.0000000000E+00
                       1.8535660065E+00  2.9213356967E+00  7.0656400688E+00
                       1.8535660065E+00  7.7170524411E+00  7.3215101645E+00
                       2.9421507379E+00  7.7170524411E+00  2.5257934201E+00
                       2.9421507379E+00  2.9213356967E+00  2.2699233244E+00
                       7.7378674823E+00  1.8743810477E+00  3.5443682642E+00
                       7.7378674823E+00  6.6700977922E+00  1.2513484802E+00
                       6.6492827509E+00  6.6700977922E+00  6.0470652247E+00
                       6.6492827509E+00  1.8743810477E+00  8.3400850086E+00
             xred      0.0000000000E+00  0.0000000000E+00  0.0000000000E+00
                       0.0000000000E+00  5.0000000000E-01  5.0000000000E-01
                       5.0000000000E-01  0.0000000000E+00  5.0000000000E-01
                       5.0000000000E-01  5.0000000000E-01  0.0000000000E+00
                       1.9325224000E-01  3.0457759000E-01  7.3666153000E-01
                       1.9325224000E-01  8.0457759000E-01  7.6333847000E-01
                       3.0674776000E-01  8.0457759000E-01  2.6333847000E-01
                       3.0674776000E-01  3.0457759000E-01  2.3666153000E-01
                       8.0674776000E-01  1.9542241000E-01  3.6953478000E-01
                       8.0674776000E-01  6.9542241000E-01  1.3046522000E-01
                       6.9325224000E-01  6.9542241000E-01  6.3046522000E-01
                       6.9325224000E-01  1.9542241000E-01  8.6953478000E-01
            znucl       72.00000    8.00000
 
================================================================================


- Timing analysis has been suppressed with timopt=0



================================================================================

 Suggested references for the acknowledgment of ABINIT usage.

 The users of ABINIT have little formal obligations with respect to the ABINIT group
 (those specified in the GNU General Public License, http://www.gnu.org/copyleft/gpl.txt).
 However, it is common practice in the scientific literature,
 to acknowledge the efforts of people that have made the research possible.
 In this spirit, please find below suggested citations of work written by ABINIT developers,
 corresponding to implementations inside of ABINIT that you have used in the present run.
 Note also that it will be of great value to readers of publications presenting these results,
 to read papers enabling them to understand the theoretical formalism and details
 of the ABINIT implementation.
 For information on why they are suggested, see also https://docs.abinit.org/theory/acknowledgments.
-
- [1] Specification of an extensible and portable file format for electronic structure and crystallographic data
- X. Gonze, C.-O. Almbladh, A. Cucca, D. Caliste, C. Freysoldt, M. Marques, V. Olevano, Y. Pouillon, M.J. Verstraete,
- Comput. Material Science 43, 1056 (2008).
- Comment: to be cited in case the ETSF_IO file format is used, i.e. iomode=3.
- DOI and bibtex: see https://docs.abinit.org/theory/bibliography/#gonze2008
-
- [2] The Abinit project: Impact, environment and recent developments.
- Computer Phys. Comm. 248, 107042 (2020).
- X.Gonze, B. Amadon, G. Antonius, F.Arnardi, L.Baguet, J.-M.Beuken,
- J.Bieder, F.Bottin, J.Bouchet, E.Bousquet, N.Brouwer, F.Bruneval,
- G.Brunin, T.Cavignac, J.-B. Charraud, Wei Chen, M.Cote, S.Cottenier,
- J.Denier, G.Geneste, Ph.Ghosez, M.Giantomassi, Y.Gillet, O.Gingras,
- D.R.Hamann, G.Hautier, Xu He, N.Helbig, N.Holzwarth, Y.Jia, F.Jollet,
- W.Lafargue-Dit-Hauret, K.Lejaeghere, M.A.L.Marques, A.Martin, C.Martins,
- H.P.C. Miranda, F.Naccarato, K. Persson, G.Petretto, V.Planes, Y.Pouillon,
- S.Prokhorenko, F.Ricci, G.-M.Rignanese, A.H.Romero, M.M.Schmitt, M.Torrent,
- M.J.van Setten, B.Van Troeye, M.J.Verstraete, G.Zerah and J.W.Zwanzig
- Comment: the fifth generic paper describing the ABINIT project.
- Note that a version of this paper, that is not formatted for Computer Phys. Comm. 
- is available at https://www.abinit.org/sites/default/files/ABINIT20.pdf .
- The licence allows the authors to put it on the Web.
- DOI and bibtex: see https://docs.abinit.org/theory/bibliography/#gonze2020
-
- [3] Optimized norm-conserving Vanderbilt pseudopotentials.
- D.R. Hamann, Phys. Rev. B 88, 085117 (2013).
- Comment: Some pseudopotential generated using the ONCVPSP code were used.
- DOI and bibtex: see https://docs.abinit.org/theory/bibliography/#hamann2013
-
- [4] ABINIT: Overview, and focus on selected capabilities
- J. Chem. Phys. 152, 124102 (2020).
- A. Romero, D.C. Allan, B. Amadon, G. Antonius, T. Applencourt, L.Baguet,
- J.Bieder, F.Bottin, J.Bouchet, E.Bousquet, F.Bruneval,
- G.Brunin, D.Caliste, M.Cote,
- J.Denier, C. Dreyer, Ph.Ghosez, M.Giantomassi, Y.Gillet, O.Gingras,
- D.R.Hamann, G.Hautier, F.Jollet, G. Jomard,
- A.Martin, 
- H.P.C. Miranda, F.Naccarato, G.Petretto, N.A. Pike, V.Planes,
- S.Prokhorenko, T. Rangel, F.Ricci, G.-M.Rignanese, M.Royo, M.Stengel, M.Torrent,
- M.J.van Setten, B.Van Troeye, M.J.Verstraete, J.Wiktor, J.W.Zwanziger, and X.Gonze.
- Comment: a global overview of ABINIT, with focus on selected capabilities .
- Note that a version of this paper, that is not formatted for J. Chem. Phys 
- is available at https://www.abinit.org/sites/default/files/ABINIT20_JPC.pdf .
- The licence allows the authors to put it on the Web.
- DOI and bibtex: see https://docs.abinit.org/theory/bibliography/#romero2020
-
- [5] Recent developments in the ABINIT software package.
- Computer Phys. Comm. 205, 106 (2016).
- X.Gonze, F.Jollet, F.Abreu Araujo, D.Adams, B.Amadon, T.Applencourt,
- C.Audouze, J.-M.Beuken, J.Bieder, A.Bokhanchuk, E.Bousquet, F.Bruneval
- D.Caliste, M.Cote, F.Dahm, F.Da Pieve, M.Delaveau, M.Di Gennaro,
- B.Dorado, C.Espejo, G.Geneste, L.Genovese, A.Gerossier, M.Giantomassi,
- Y.Gillet, D.R.Hamann, L.He, G.Jomard, J.Laflamme Janssen, S.Le Roux,
- A.Levitt, A.Lherbier, F.Liu, I.Lukacevic, A.Martin, C.Martins,
- M.J.T.Oliveira, S.Ponce, Y.Pouillon, T.Rangel, G.-M.Rignanese,
- A.H.Romero, B.Rousseau, O.Rubel, A.A.Shukri, M.Stankovski, M.Torrent,
- M.J.Van Setten, B.Van Troeye, M.J.Verstraete, D.Waroquier, J.Wiktor,
- B.Xu, A.Zhou, J.W.Zwanziger.
- Comment: the fourth generic paper describing the ABINIT project.
- Note that a version of this paper, that is not formatted for Computer Phys. Comm. 
- is available at https://www.abinit.org/sites/default/files/ABINIT16.pdf .
- The licence allows the authors to put it on the Web.
- DOI and bibtex: see https://docs.abinit.org/theory/bibliography/#gonze2016
-
- Proc.   0 individual time (sec): cpu=         78.7  wall=         82.6
 
================================================================================
 
 Calculation completed.
.Delivered   0 WARNINGs and   0 COMMENTs to log file.
+Overall time at end (sec) : cpu=       2927.7  wall=       2971.3
