
.Version 9.4.1 of ABINIT 
.(MPI version, prepared for a x86_64_linux_intel2021.2 computer) 

.Copyright (C) 1998-2021 ABINIT group . 
 ABINIT comes with ABSOLUTELY NO WARRANTY.
 It is free software, and you are welcome to redistribute it
 under certain conditions (GNU General Public License,
 see ~abinit/COPYING or http://www.gnu.org/copyleft/gpl.txt).

 ABINIT is a project of the Universite Catholique de Louvain,
 Corning Inc. and other collaborators, see ~abinit/doc/developers/contributors.txt .
 Please read https://docs.abinit.org/theory/acknowledgments for suggested
 acknowledgments of the ABINIT effort.
 For more information, see https://www.abinit.org .

.Starting date : Tue 20 Jul 2021.
- ( at 17h29 )
  
- input  file    -> MODE19MODE21MODE22INTER6INTER6INTER6
- output file    -> MODE19MODE21MODE22INTER6INTER6INTER6.abo
- root for input  files -> i
- root for output files -> o
 
 
 Symmetries : space group Pa -3 (#205); Bravais cP (primitive cubic)
================================================================================
 Values of the parameters that define the memory need of the present run
     intxc =       0    ionmov =       2      iscf =       7    lmnmax =       8
     lnmax =       8     mgfft =      45  mpssoang =       4    mqgrid =    3001
     natom =      12  nloc_mem =       1    nspden =       1   nspinor =       1
    nsppol =       1      nsym =      24    n1xccc =    2501    ntypat =       2
    occopt =       1   xclevel =       2
-    mband =          50        mffmem =           1         mkmem =           4
       mpw =        5280          nfft =       91125          nkpt =         112
================================================================================
P This job should need less than                      47.654 Mbytes of memory.
  Rough estimation (10% accuracy) of disk space for files :
_ WF disk file :    451.174 Mbytes ; DEN or POT disk file :      0.697 Mbytes.
================================================================================
 
--------------------------------------------------------------------------------
------------- Echo of variables that govern the present computation ------------
--------------------------------------------------------------------------------
-
- outvars: echo of selected default values                                      
-   iomode0 =  3 , fftalg0 =512 , wfoptalg0 =  0
-
- outvars: echo of global parameters not present in the input file              
-  max_nthreads =    0
-
 -outvars: echo values of preprocessed input variables --------
            acell      9.5914334888E+00  9.5914334888E+00  9.5914334888E+00 Bohr
              amu      1.78490000E+02  1.59994000E+01
          chkprim           0
             ecut      2.50000000E+01 Hartree
           ecutsm      5.00000000E-01 Hartree
-          fftalg         512
           ionmov           2
           istwfk        2    0    0    3    0    0    0    0    0    0
                         0    0    0    0    0    0    6    0    0    7
                         0    0    0    0    0    0    0    0    0    0
                         0    0    0    0    0    0    0    0    0    0
                         0    0    0    0    0    0    0    0    0    0
                       outvar_i_n : Printing only first  50 k-points.
              ixc          11
              kpt      0.00000000E+00  0.00000000E+00  0.00000000E+00
                       1.66666667E-01  0.00000000E+00  0.00000000E+00
                       3.33333333E-01  0.00000000E+00  0.00000000E+00
                       5.00000000E-01  0.00000000E+00  0.00000000E+00
                       0.00000000E+00  1.66666667E-01  0.00000000E+00
                       1.66666667E-01  1.66666667E-01  0.00000000E+00
                       3.33333333E-01  1.66666667E-01  0.00000000E+00
                       5.00000000E-01  1.66666667E-01  0.00000000E+00
                      -3.33333333E-01  1.66666667E-01  0.00000000E+00
                      -1.66666667E-01  1.66666667E-01  0.00000000E+00
                       0.00000000E+00  3.33333333E-01  0.00000000E+00
                       1.66666667E-01  3.33333333E-01  0.00000000E+00
                       3.33333333E-01  3.33333333E-01  0.00000000E+00
                       5.00000000E-01  3.33333333E-01  0.00000000E+00
                      -3.33333333E-01  3.33333333E-01  0.00000000E+00
                      -1.66666667E-01  3.33333333E-01  0.00000000E+00
                       0.00000000E+00  5.00000000E-01  0.00000000E+00
                       1.66666667E-01  5.00000000E-01  0.00000000E+00
                       3.33333333E-01  5.00000000E-01  0.00000000E+00
                       5.00000000E-01  5.00000000E-01  0.00000000E+00
                       0.00000000E+00  0.00000000E+00  1.66666667E-01
                       1.66666667E-01  0.00000000E+00  1.66666667E-01
                       3.33333333E-01  0.00000000E+00  1.66666667E-01
                       5.00000000E-01  0.00000000E+00  1.66666667E-01
                      -3.33333333E-01  0.00000000E+00  1.66666667E-01
                      -1.66666667E-01  0.00000000E+00  1.66666667E-01
                       0.00000000E+00  1.66666667E-01  1.66666667E-01
                       1.66666667E-01  1.66666667E-01  1.66666667E-01
                       3.33333333E-01  1.66666667E-01  1.66666667E-01
                       5.00000000E-01  1.66666667E-01  1.66666667E-01
                      -3.33333333E-01  1.66666667E-01  1.66666667E-01
                      -1.66666667E-01  1.66666667E-01  1.66666667E-01
                       0.00000000E+00  3.33333333E-01  1.66666667E-01
                       1.66666667E-01  3.33333333E-01  1.66666667E-01
                       3.33333333E-01  3.33333333E-01  1.66666667E-01
                       5.00000000E-01  3.33333333E-01  1.66666667E-01
                      -3.33333333E-01  3.33333333E-01  1.66666667E-01
                      -1.66666667E-01  3.33333333E-01  1.66666667E-01
                       0.00000000E+00  5.00000000E-01  1.66666667E-01
                       1.66666667E-01  5.00000000E-01  1.66666667E-01
                       3.33333333E-01  5.00000000E-01  1.66666667E-01
                       5.00000000E-01  5.00000000E-01  1.66666667E-01
                      -3.33333333E-01  5.00000000E-01  1.66666667E-01
                      -1.66666667E-01  5.00000000E-01  1.66666667E-01
                       0.00000000E+00 -3.33333333E-01  1.66666667E-01
                       1.66666667E-01 -3.33333333E-01  1.66666667E-01
                       3.33333333E-01 -3.33333333E-01  1.66666667E-01
                       5.00000000E-01 -3.33333333E-01  1.66666667E-01
                      -3.33333333E-01 -3.33333333E-01  1.66666667E-01
                      -1.66666667E-01 -3.33333333E-01  1.66666667E-01
                       outvar_i_n : Printing only first  50 k-points.
           kptopt           2
         kptrlatt        6    0    0      0    6    0      0    0    6
          kptrlen      5.75486009E+01
P           mkmem           4
            natom          12
            nband          50
            ngfft          45      45      45
             nkpt         112
            nstep         100
             nsym          24
            ntime        1000
           ntypat           2
              occ      2.000000  2.000000  2.000000  2.000000  2.000000  2.000000
                       2.000000  2.000000  2.000000  2.000000  2.000000  2.000000
                       2.000000  2.000000  2.000000  2.000000  2.000000  2.000000
                       2.000000  2.000000  2.000000  2.000000  2.000000  2.000000
                       2.000000  2.000000  2.000000  2.000000  2.000000  2.000000
                       2.000000  2.000000  2.000000  2.000000  2.000000  2.000000
                       2.000000  2.000000  2.000000  2.000000  2.000000  2.000000
                       2.000000  2.000000  2.000000  2.000000  2.000000  2.000000
                       0.000000  0.000000
        pawecutdg      2.50000000E+01 Hartree
         pawxcdev           0
          spgroup         205
           symrel      1  0  0   0  1  0   0  0  1      -1  0  0   0 -1  0   0  0 -1
                      -1  0  0   0  1  0   0  0 -1       1  0  0   0 -1  0   0  0  1
                      -1  0  0   0 -1  0   0  0  1       1  0  0   0  1  0   0  0 -1
                       1  0  0   0 -1  0   0  0 -1      -1  0  0   0  1  0   0  0  1
                       0  0  1   1  0  0   0  1  0       0  0 -1  -1  0  0   0 -1  0
                       0  0 -1   1  0  0   0 -1  0       0  0  1  -1  0  0   0  1  0
                       0  0 -1  -1  0  0   0  1  0       0  0  1   1  0  0   0 -1  0
                       0  0  1  -1  0  0   0 -1  0       0  0 -1   1  0  0   0  1  0
                       0  1  0   0  0  1   1  0  0       0 -1  0   0  0 -1  -1  0  0
                       0 -1  0   0  0  1  -1  0  0       0  1  0   0  0 -1   1  0  0
                       0 -1  0   0  0 -1   1  0  0       0  1  0   0  0  1  -1  0  0
                       0  1  0   0  0 -1  -1  0  0       0 -1  0   0  0  1   1  0  0
            tnons      0.0000000  0.0000000  0.0000000     0.0000000  0.0000000  0.0000000
                       0.5000000  0.5000000  0.0000000     0.5000000  0.5000000  0.0000000
                       0.0000000  0.5000000  0.5000000     0.0000000  0.5000000  0.5000000
                       0.5000000  0.0000000  0.5000000     0.5000000  0.0000000  0.5000000
                       0.5000000  0.5000000  0.0000000     0.5000000  0.5000000  0.0000000
                       0.0000000  0.5000000  0.5000000     0.0000000  0.5000000  0.5000000
                       0.0000000  0.0000000  0.0000000     0.0000000  0.0000000  0.0000000
                       0.5000000  0.0000000  0.5000000     0.5000000  0.0000000  0.5000000
                       0.0000000  0.5000000  0.5000000     0.0000000  0.5000000  0.5000000
                       0.0000000  0.0000000  0.0000000     0.0000000  0.0000000  0.0000000
                       0.5000000  0.5000000  0.0000000     0.5000000  0.5000000  0.0000000
                       0.5000000  0.0000000  0.5000000     0.5000000  0.0000000  0.5000000
           toldfe      1.00000000E-10 Hartree
           tsmear      4.00000000E-02 Hartree
            typat      1  1  1  1  2  2  2  2  2  2  2  2
              wtk        0.00463    0.00926    0.00926    0.00463    0.00926    0.00926
                         0.00926    0.00926    0.00926    0.00926    0.00926    0.00926
                         0.00926    0.00926    0.00926    0.00926    0.00463    0.00926
                         0.00926    0.00463    0.00926    0.00926    0.00926    0.00926
                         0.00926    0.00926    0.00926    0.00926    0.00926    0.00926
                         0.00926    0.00926    0.00926    0.00926    0.00926    0.00926
                         0.00926    0.00926    0.00926    0.00926    0.00926    0.00926
                         0.00926    0.00926    0.00926    0.00926    0.00926    0.00926
                         0.00926    0.00926
                       outvars : Printing only first  50 k-points.
           xangst      0.0000000000E+00  0.0000000000E+00  0.0000000000E+00
                       0.0000000000E+00  2.5377840000E+00  2.5377840000E+00
                       2.5377840000E+00  0.0000000000E+00  2.5377840000E+00
                       2.5377840000E+00  2.5377840000E+00  0.0000000000E+00
                       1.6224464741E+00  9.1533752594E-01  4.1602304741E+00
                       1.6224464741E+00  3.4531215259E+00  3.4531215259E+00
                       9.1533752594E-01  3.4531215259E+00  9.1533752594E-01
                       9.1533752594E-01  9.1533752594E-01  1.6224464741E+00
                       3.4531215259E+00  1.6224464741E+00  1.6224464741E+00
                       3.4531215259E+00  4.1602304741E+00  9.1533752594E-01
                       4.1602304741E+00  4.1602304741E+00  3.4531215259E+00
                       4.1602304741E+00  1.6224464741E+00  4.1602304741E+00
            xcart      0.0000000000E+00  0.0000000000E+00  0.0000000000E+00
                       0.0000000000E+00  4.7957167444E+00  4.7957167444E+00
                       4.7957167444E+00  0.0000000000E+00  4.7957167444E+00
                       4.7957167444E+00  4.7957167444E+00  0.0000000000E+00
                       3.0659795012E+00  1.7297372432E+00  7.8616962457E+00
                       3.0659795012E+00  6.5254539876E+00  6.5254539876E+00
                       1.7297372432E+00  6.5254539876E+00  1.7297372432E+00
                       1.7297372432E+00  1.7297372432E+00  3.0659795012E+00
                       6.5254539876E+00  3.0659795012E+00  3.0659795012E+00
                       6.5254539876E+00  7.8616962457E+00  1.7297372432E+00
                       7.8616962457E+00  7.8616962457E+00  6.5254539876E+00
                       7.8616962457E+00  3.0659795012E+00  7.8616962457E+00
             xred      0.0000000000E+00  0.0000000000E+00  0.0000000000E+00
                       0.0000000000E+00  5.0000000000E-01  5.0000000000E-01
                       5.0000000000E-01  0.0000000000E+00  5.0000000000E-01
                       5.0000000000E-01  5.0000000000E-01  0.0000000000E+00
                       3.1965811000E-01  1.8034189000E-01  8.1965811000E-01
                       3.1965811000E-01  6.8034189000E-01  6.8034189000E-01
                       1.8034189000E-01  6.8034189000E-01  1.8034189000E-01
                       1.8034189000E-01  1.8034189000E-01  3.1965811000E-01
                       6.8034189000E-01  3.1965811000E-01  3.1965811000E-01
                       6.8034189000E-01  8.1965811000E-01  1.8034189000E-01
                       8.1965811000E-01  8.1965811000E-01  6.8034189000E-01
                       8.1965811000E-01  3.1965811000E-01  8.1965811000E-01
            znucl       72.00000    8.00000
 
================================================================================
 
 chkinp: Checking input parameters for consistency.
 
================================================================================
== DATASET  1 ==================================================================
-   mpi_nproc: 36, omp_nthreads: -1 (-1 if OMP is not activated)
-    --> not optimal distribution: autoparal keyword recommended in input file <--
 

--- !DatasetInfo
iteration_state: {dtset: 1, }
dimensions: {natom: 12, nkpt: 112, mband: 50, nsppol: 1, nspinor: 1, nspden: 1, mpw: 5280, }
cutoff_energies: {ecut:  25.0, pawecutdg:  25.0, }
electrons: {nelect:   9.60000000E+01, charge:   0.00000000E+00, occopt:   1.00000000E+00, tsmear:   4.00000000E-02, }
meta: {optdriver: 0, ionmov: 2, optcell: 0, iscf: 7, paral_kgb: 0, }
...

 Exchange-correlation functional for the present dataset will be:
  GGA: Perdew-Burke-Ernzerhof functional - ixc=11
 Citation for XC functional:
  J.P.Perdew, K.Burke, M.Ernzerhof, PRL 77, 3865 (1996)
 
 Real(R)+Recip(G) space primitive vectors, cartesian coordinates (Bohr,Bohr^-1):
 R(1)=  9.5914335  0.0000000  0.0000000  G(1)=  0.1042597  0.0000000  0.0000000
 R(2)=  0.0000000  9.5914335  0.0000000  G(2)=  0.0000000  0.1042597  0.0000000
 R(3)=  0.0000000  0.0000000  9.5914335  G(3)=  0.0000000  0.0000000  0.1042597
 Unit cell volume ucvol=  8.8236964E+02 bohr^3
 Angles (23,13,12)=  9.00000000E+01  9.00000000E+01  9.00000000E+01 degrees
 
 getcut: wavevector=  0.0000  0.0000  0.0000  ngfft=  45  45  45
         ecut(hartree)=     25.000   => boxcut(ratio)=   2.03814
 
--- Pseudopotential description ------------------------------------------------
- pspini: atom type   1  psp file is /workspace/jiahaoz/PACKAGE_INSTALL/abinit-9.4.1/pbe_s_sr/Hf.psp8
- pspatm: opening atomic psp file    /workspace/jiahaoz/PACKAGE_INSTALL/abinit-9.4.1/pbe_s_sr/Hf.psp8
- Hf    ONCVPSP  r_core=  1.72  1.72  1.72  2.43
- 72.00000  12.00000    160625                znucl, zion, pspdat
    8   11    3    4       600   0.00000      pspcod,pspxc,lmax,lloc,mmax,r2well
    5.99000000000000    5.40000000000000    0.00000000000000   rchrg,fchrg,qchrg
     nproj     2     2     2     2
     extension_switch     1
  pspatm : epsatm=   21.98649506
         --- l  ekb(1:nproj) -->
             0    5.812335   -0.521211
             1   -3.038329    2.466565
             2    2.060039    0.471534
             3    9.947446    0.353012
 pspatm: atomic psp has been read  and splines computed
 
- pspini: atom type   2  psp file is /workspace/jiahaoz/PACKAGE_INSTALL/abinit-9.4.1/pbe_s_sr/O.psp8
- pspatm: opening atomic psp file    /workspace/jiahaoz/PACKAGE_INSTALL/abinit-9.4.1/pbe_s_sr/O.psp8
- O     ONCVPSP  r_core=  1.36  1.46  1.26
-  8.00000   6.00000    151103                znucl, zion, pspdat
    8   11    2    4       600   0.00000      pspcod,pspxc,lmax,lloc,mmax,r2well
    5.99000000000000    4.00000000000000    0.00000000000000   rchrg,fchrg,qchrg
     nproj     2     2     1
     extension_switch     1
  pspatm : epsatm=    6.19401560
         --- l  ekb(1:nproj) -->
             0    5.257212    0.704241
             1   -5.135443   -1.451781
             2   -4.371486
 pspatm: atomic psp has been read  and splines computed
 
   1.31998181E+04                                ecore*ucvol(ha*bohr**3)
--------------------------------------------------------------------------------
 
_setup2: Arith. and geom. avg. npw (full set) are    5268.875    5268.869
 
================================================================================
 
=== [ionmov= 2] Broyden-Fletcher-Goldfard-Shanno method (forces)            
================================================================================
 
--- Iteration: (   1/1000) Internal Cycle: (1/1)
--------------------------------------------------------------------------------
 
---SELF-CONSISTENT-FIELD CONVERGENCE--------------------------------------------

--- !BeginCycle
iteration_state: {dtset: 1, itime: 1, icycle: 1, }
solver: {iscf: 7, nstep: 100, nline: 4, wfoptalg: 0, }
tolerances: {toldfe: 1.00E-10, }
...
 
     iter   Etot(hartree)      deltaE(h)  residm     vres2
 ETOT  1  -357.49741016226    -3.575E+02 3.098E-01 1.333E+03
 ETOT  2  -357.49146971584     5.940E-03 3.166E-02 1.515E+03
 ETOT  3  -358.55997208257    -1.069E+00 4.486E-03 3.594E+01
 ETOT  4  -358.58111987602    -2.115E-02 3.658E-03 3.251E-01
 ETOT  5  -358.58130243024    -1.826E-04 1.216E-03 9.462E-03
 ETOT  6  -358.58130854710    -6.117E-06 1.977E-03 3.907E-04
 ETOT  7  -358.58130879667    -2.496E-07 5.027E-04 2.621E-06
 ETOT  8  -358.58130879815    -1.481E-09 1.073E-03 2.272E-07
 ETOT  9  -358.58130879828    -1.252E-10 3.654E-04 9.217E-09
 ETOT 10  -358.58130879828    -4.889E-12 7.517E-04 2.640E-11
 ETOT 11  -358.58130879828     5.684E-13 2.901E-04 7.642E-12
 
 At SCF step   11, etot is converged : 
  for the second time, diff in etot=  5.684E-13 < toldfe=  1.000E-10
 
 Cartesian components of stress tensor (hartree/bohr^3)
  sigma(1 1)= -5.77752878E-04  sigma(3 2)=  0.00000000E+00
  sigma(2 2)= -5.77752878E-04  sigma(3 1)=  0.00000000E+00
  sigma(3 3)= -5.77752878E-04  sigma(2 1)=  0.00000000E+00
 

--- !ResultsGS
iteration_state: {dtset: 1, itime: 1, icycle: 1, }
comment   : Summary of ground state results
lattice_vectors:
- [  9.5914335,   0.0000000,   0.0000000, ]
- [  0.0000000,   9.5914335,   0.0000000, ]
- [  0.0000000,   0.0000000,   9.5914335, ]
lattice_lengths: [   9.59143,    9.59143,    9.59143, ]
lattice_angles: [ 90.000,  90.000,  90.000, ] # degrees, (23, 13, 12)
lattice_volume:   8.8236964E+02
convergence: {deltae:  5.684E-13, res2:  7.642E-12, residm:  2.901E-04, diffor: null, }
etotal    :  -3.58581309E+02
entropy   :   0.00000000E+00
fermie    :   2.78390141E-01
cartesian_stress_tensor: # hartree/bohr^3
- [ -5.77752878E-04,   0.00000000E+00,   0.00000000E+00, ]
- [  0.00000000E+00,  -5.77752878E-04,   0.00000000E+00, ]
- [  0.00000000E+00,   0.00000000E+00,  -5.77752878E-04, ]
pressure_GPa:   1.6998E+01
xred      :
- [  0.0000E+00,   0.0000E+00,   0.0000E+00, Hf]
- [  0.0000E+00,   5.0000E-01,   5.0000E-01, Hf]
- [  5.0000E-01,   0.0000E+00,   5.0000E-01, Hf]
- [  5.0000E-01,   5.0000E-01,   0.0000E+00, Hf]
- [  3.1966E-01,   1.8034E-01,   8.1966E-01,  O]
- [  3.1966E-01,   6.8034E-01,   6.8034E-01,  O]
- [  1.8034E-01,   6.8034E-01,   1.8034E-01,  O]
- [  1.8034E-01,   1.8034E-01,   3.1966E-01,  O]
- [  6.8034E-01,   3.1966E-01,   3.1966E-01,  O]
- [  6.8034E-01,   8.1966E-01,   1.8034E-01,  O]
- [  8.1966E-01,   8.1966E-01,   6.8034E-01,  O]
- [  8.1966E-01,   3.1966E-01,   8.1966E-01,  O]
cartesian_forces: # hartree/bohr
- [  2.71050543E-20,  -2.71050543E-20,   0.00000000E+00, ]
- [  2.71050543E-20,  -2.71050543E-20,   0.00000000E+00, ]
- [  2.71050543E-20,  -2.71050543E-20,   0.00000000E+00, ]
- [  2.71050543E-20,  -2.71050543E-20,   0.00000000E+00, ]
- [  6.95419119E-04,  -6.95419119E-04,   6.95419119E-04, ]
- [  6.95419119E-04,  -6.95419119E-04,  -6.95419119E-04, ]
- [ -6.95419119E-04,  -6.95419119E-04,  -6.95419119E-04, ]
- [ -6.95419119E-04,  -6.95419119E-04,   6.95419119E-04, ]
- [ -6.95419119E-04,   6.95419119E-04,   6.95419119E-04, ]
- [ -6.95419119E-04,   6.95419119E-04,  -6.95419119E-04, ]
- [  6.95419119E-04,   6.95419119E-04,  -6.95419119E-04, ]
- [  6.95419119E-04,   6.95419119E-04,   6.95419119E-04, ]
force_length_stats: {min:   3.83323354E-20, max:   1.20450125E-03, mean:   8.03000831E-04, }
...

 Integrated electronic density in atomic spheres:
 ------------------------------------------------
 Atom  Sphere_radius  Integrated_density
    1        2.00000          8.31706654
    2        2.00000          8.34078970
    3        2.00000          8.34078970
    4        2.00000          8.34078970
    5        2.00000          6.39762756
    6        2.00000          6.39260328
    7        2.00000          6.39762756
    8        2.00000          6.39762756
    9        2.00000          6.39260328
   10        2.00000          6.39762756
   11        2.00000          6.39762756
   12        2.00000          6.39762756
 
---OUTPUT-----------------------------------------------------------------------
 
 Cartesian coordinates (xcart) [bohr]
  0.00000000000000E+00  0.00000000000000E+00  0.00000000000000E+00
  0.00000000000000E+00  4.79571674441906E+00  4.79571674441906E+00
  4.79571674441906E+00  0.00000000000000E+00  4.79571674441906E+00
  4.79571674441906E+00  4.79571674441906E+00  0.00000000000000E+00
  3.06597950123270E+00  1.72973724318636E+00  7.86169624565176E+00
  3.06597950123270E+00  6.52545398760542E+00  6.52545398760542E+00
  1.72973724318636E+00  6.52545398760542E+00  1.72973724318636E+00
  1.72973724318636E+00  1.72973724318636E+00  3.06597950123270E+00
  6.52545398760542E+00  3.06597950123270E+00  3.06597950123270E+00
  6.52545398760542E+00  7.86169624565176E+00  1.72973724318636E+00
  7.86169624565176E+00  7.86169624565176E+00  6.52545398760542E+00
  7.86169624565176E+00  3.06597950123270E+00  7.86169624565176E+00
 Reduced coordinates (xred)
  0.00000000000000E+00  0.00000000000000E+00  0.00000000000000E+00
  0.00000000000000E+00  5.00000000000000E-01  5.00000000000000E-01
  5.00000000000000E-01  0.00000000000000E+00  5.00000000000000E-01
  5.00000000000000E-01  5.00000000000000E-01  0.00000000000000E+00
  3.19658110000000E-01  1.80341890000000E-01  8.19658110000000E-01
  3.19658110000000E-01  6.80341890000000E-01  6.80341890000000E-01
  1.80341890000000E-01  6.80341890000000E-01  1.80341890000000E-01
  1.80341890000000E-01  1.80341890000000E-01  3.19658110000000E-01
  6.80341890000000E-01  3.19658110000000E-01  3.19658110000000E-01
  6.80341890000000E-01  8.19658110000000E-01  1.80341890000000E-01
  8.19658110000000E-01  8.19658110000000E-01  6.80341890000000E-01
  8.19658110000000E-01  3.19658110000000E-01  8.19658110000000E-01
 Cartesian forces (fcart) [Ha/bohr]; max,rms= 6.95419E-04 5.67807E-04 (free atoms)
  2.71050543121376E-20 -2.71050543121376E-20  0.00000000000000E+00
  2.71050543121376E-20 -2.71050543121376E-20  0.00000000000000E+00
  2.71050543121376E-20 -2.71050543121376E-20  0.00000000000000E+00
  2.71050543121376E-20 -2.71050543121376E-20  0.00000000000000E+00
  6.95419118836251E-04 -6.95419118836251E-04  6.95419118836251E-04
  6.95419118836251E-04 -6.95419118836251E-04 -6.95419118836251E-04
 -6.95419118836251E-04 -6.95419118836251E-04 -6.95419118836251E-04
 -6.95419118836251E-04 -6.95419118836251E-04  6.95419118836251E-04
 -6.95419118836251E-04  6.95419118836251E-04  6.95419118836251E-04
 -6.95419118836251E-04  6.95419118836251E-04 -6.95419118836251E-04
  6.95419118836251E-04  6.95419118836251E-04 -6.95419118836251E-04
  6.95419118836251E-04  6.95419118836251E-04  6.95419118836251E-04
 Gradient of E wrt nuclear positions in reduced coordinates (gred)
 -2.59976325646213E-19  2.59976325646213E-19  0.00000000000000E+00
 -2.59976325646213E-19  2.59976325646213E-19  0.00000000000000E+00
 -2.59976325646213E-19  2.59976325646213E-19  0.00000000000000E+00
 -2.59976325646213E-19  2.59976325646213E-19  0.00000000000000E+00
 -6.67006622518431E-03  6.67006622518431E-03 -6.67006622518431E-03
 -6.67006622518431E-03  6.67006622518431E-03  6.67006622518431E-03
  6.67006622518431E-03  6.67006622518431E-03  6.67006622518431E-03
  6.67006622518431E-03  6.67006622518431E-03 -6.67006622518431E-03
  6.67006622518431E-03 -6.67006622518431E-03 -6.67006622518431E-03
  6.67006622518431E-03 -6.67006622518431E-03  6.67006622518431E-03
 -6.67006622518431E-03 -6.67006622518431E-03  6.67006622518431E-03
 -6.67006622518431E-03 -6.67006622518431E-03 -6.67006622518431E-03
 Total energy (etotal) [Ha]= -3.58581308798280E+02
 
--- Iteration: (   2/1000) Internal Cycle: (1/1)
--------------------------------------------------------------------------------
 
---SELF-CONSISTENT-FIELD CONVERGENCE--------------------------------------------

--- !BeginCycle
iteration_state: {dtset: 1, itime: 2, icycle: 1, }
solver: {iscf: 7, nstep: 100, nline: 4, wfoptalg: 0, }
tolerances: {toldfe: 1.00E-10, }
...
 
     iter   Etot(hartree)      deltaE(h)  residm     vres2
 ETOT  1  -358.58130746523    -3.586E+02 2.073E-04 2.790E-02
 ETOT  2  -358.58131804412    -1.058E-05 1.831E-04 3.110E-03
 ETOT  3  -358.58131923187    -1.188E-06 3.490E-04 1.671E-03
 ETOT  4  -358.58132039632    -1.164E-06 1.887E-04 1.667E-05
 ETOT  5  -358.58132040377    -7.449E-09 3.062E-04 3.108E-07
 ETOT  6  -358.58132040382    -5.343E-11 1.723E-04 4.035E-08
 ETOT  7  -358.58132040385    -2.626E-11 2.839E-04 1.115E-09
 
 At SCF step    7, etot is converged : 
  for the second time, diff in etot=  2.626E-11 < toldfe=  1.000E-10
 
 Cartesian components of stress tensor (hartree/bohr^3)
  sigma(1 1)= -5.77947163E-04  sigma(3 2)=  0.00000000E+00
  sigma(2 2)= -5.77947163E-04  sigma(3 1)=  0.00000000E+00
  sigma(3 3)= -5.77947163E-04  sigma(2 1)=  0.00000000E+00
 

--- !ResultsGS
iteration_state: {dtset: 1, itime: 2, icycle: 1, }
comment   : Summary of ground state results
lattice_vectors:
- [  9.5914335,   0.0000000,   0.0000000, ]
- [  0.0000000,   9.5914335,   0.0000000, ]
- [  0.0000000,   0.0000000,   9.5914335, ]
lattice_lengths: [   9.59143,    9.59143,    9.59143, ]
lattice_angles: [ 90.000,  90.000,  90.000, ] # degrees, (23, 13, 12)
lattice_volume:   8.8236964E+02
convergence: {deltae: -2.626E-11, res2:  1.115E-09, residm:  2.839E-04, diffor: null, }
etotal    :  -3.58581320E+02
entropy   :   0.00000000E+00
fermie    :   2.78359278E-01
cartesian_stress_tensor: # hartree/bohr^3
- [ -5.77947163E-04,   0.00000000E+00,   0.00000000E+00, ]
- [  0.00000000E+00,  -5.77947163E-04,   0.00000000E+00, ]
- [  0.00000000E+00,   0.00000000E+00,  -5.77947163E-04, ]
pressure_GPa:   1.7004E+01
xred      :
- [  3.6117E-21,  -3.6117E-21,   0.0000E+00, Hf]
- [  3.6117E-21,   5.0000E-01,   5.0000E-01, Hf]
- [  5.0000E-01,  -3.6117E-21,   5.0000E-01, Hf]
- [  5.0000E-01,   5.0000E-01,   0.0000E+00, Hf]
- [  3.1973E-01,   1.8027E-01,   8.1973E-01,  O]
- [  3.1973E-01,   6.8027E-01,   6.8027E-01,  O]
- [  1.8027E-01,   6.8027E-01,   1.8027E-01,  O]
- [  1.8027E-01,   1.8027E-01,   3.1973E-01,  O]
- [  6.8027E-01,   3.1973E-01,   3.1973E-01,  O]
- [  6.8027E-01,   8.1973E-01,   1.8027E-01,  O]
- [  8.1973E-01,   8.1973E-01,   6.8027E-01,  O]
- [  8.1973E-01,   3.1973E-01,   8.1973E-01,  O]
cartesian_forces: # hartree/bohr
- [  0.00000000E+00,  -9.03501810E-20,  -9.03501810E-21, ]
- [  0.00000000E+00,  -9.03501810E-20,  -9.03501810E-21, ]
- [  0.00000000E+00,  -9.03501810E-20,  -9.03501810E-21, ]
- [  0.00000000E+00,  -9.03501810E-20,  -9.03501810E-21, ]
- [  6.97258391E-04,  -6.97258391E-04,   6.97258391E-04, ]
- [  6.97258391E-04,  -6.97258391E-04,  -6.97258391E-04, ]
- [ -6.97258391E-04,  -6.97258391E-04,  -6.97258391E-04, ]
- [ -6.97258391E-04,  -6.97258391E-04,   6.97258391E-04, ]
- [ -6.97258391E-04,   6.97258391E-04,   6.97258391E-04, ]
- [ -6.97258391E-04,   6.97258391E-04,  -6.97258391E-04, ]
- [  6.97258391E-04,   6.97258391E-04,  -6.97258391E-04, ]
- [  6.97258391E-04,   6.97258391E-04,   6.97258391E-04, ]
force_length_stats: {min:   9.08008082E-20, max:   1.20768696E-03, mean:   8.05124639E-04, }
...

 Integrated electronic density in atomic spheres:
 ------------------------------------------------
 Atom  Sphere_radius  Integrated_density
    1        2.00000          8.31710767
    2        2.00000          8.34083088
    3        2.00000          8.34083088
    4        2.00000          8.34083088
    5        2.00000          6.39662077
    6        2.00000          6.39260582
    7        2.00000          6.39662077
    8        2.00000          6.39662077
    9        2.00000          6.39260582
   10        2.00000          6.39662077
   11        2.00000          6.39662077
   12        2.00000          6.39662077
 
---OUTPUT-----------------------------------------------------------------------
 
 Cartesian coordinates (xcart) [bohr]
  3.46409606932309E-20 -3.46409606932309E-20  0.00000000000000E+00
  3.46409606932309E-20  4.79571674441906E+00  4.79571674441906E+00
  4.79571674441906E+00 -3.46409606932309E-20  4.79571674441906E+00
  4.79571674441906E+00  4.79571674441906E+00  0.00000000000000E+00
  3.06667492035153E+00  1.72904182406752E+00  7.86239166477059E+00
  3.06667492035153E+00  6.52475856848658E+00  6.52475856848658E+00
  1.72904182406752E+00  6.52475856848658E+00  1.72904182406752E+00
  1.72904182406752E+00  1.72904182406752E+00  3.06667492035153E+00
  6.52475856848658E+00  3.06667492035153E+00  3.06667492035153E+00
  6.52475856848658E+00  7.86239166477059E+00  1.72904182406752E+00
  7.86239166477059E+00  7.86239166477059E+00  6.52475856848658E+00
  7.86239166477059E+00  3.06667492035153E+00  7.86239166477059E+00
 Reduced coordinates (xred)
  3.61165624862475E-21 -3.61165624862475E-21  0.00000000000000E+00
  3.61165624862475E-21  5.00000000000000E-01  5.00000000000000E-01
  5.00000000000000E-01 -3.61165624862475E-21  5.00000000000000E-01
  5.00000000000000E-01  5.00000000000000E-01  0.00000000000000E+00
  3.19730614190291E-01  1.80269385809709E-01  8.19730614190291E-01
  3.19730614190291E-01  6.80269385809709E-01  6.80269385809709E-01
  1.80269385809709E-01  6.80269385809709E-01  1.80269385809709E-01
  1.80269385809709E-01  1.80269385809709E-01  3.19730614190291E-01
  6.80269385809709E-01  3.19730614190291E-01  3.19730614190291E-01
  6.80269385809709E-01  8.19730614190291E-01  1.80269385809709E-01
  8.19730614190291E-01  8.19730614190291E-01  6.80269385809709E-01
  8.19730614190291E-01  3.19730614190291E-01  8.19730614190291E-01
 Cartesian forces (fcart) [Ha/bohr]; max,rms= 6.97258E-04 5.69309E-04 (free atoms)
  0.00000000000000E+00 -9.03501810404587E-20 -9.03501810404587E-21
  0.00000000000000E+00 -9.03501810404587E-20 -9.03501810404587E-21
  0.00000000000000E+00 -9.03501810404587E-20 -9.03501810404587E-21
  0.00000000000000E+00 -9.03501810404587E-20 -9.03501810404587E-21
  6.97258390556217E-04 -6.97258390556217E-04  6.97258390556217E-04
  6.97258390556217E-04 -6.97258390556217E-04 -6.97258390556217E-04
 -6.97258390556217E-04 -6.97258390556217E-04 -6.97258390556217E-04
 -6.97258390556217E-04 -6.97258390556217E-04  6.97258390556217E-04
 -6.97258390556217E-04  6.97258390556217E-04  6.97258390556217E-04
 -6.97258390556217E-04  6.97258390556217E-04 -6.97258390556217E-04
  6.97258390556217E-04  6.97258390556217E-04 -6.97258390556217E-04
  6.97258390556217E-04  6.97258390556217E-04  6.97258390556217E-04
 Gradient of E wrt nuclear positions in reduced coordinates (gred)
  0.00000000000000E+00  8.66587752154042E-19  8.66587752154042E-20
  0.00000000000000E+00  8.66587752154042E-19  8.66587752154042E-20
  0.00000000000000E+00  8.66587752154042E-19  8.66587752154042E-20
  0.00000000000000E+00  8.66587752154042E-19  8.66587752154042E-20
 -6.68770747755427E-03  6.68770747755427E-03 -6.68770747755427E-03
 -6.68770747755427E-03  6.68770747755427E-03  6.68770747755427E-03
  6.68770747755427E-03  6.68770747755427E-03  6.68770747755427E-03
  6.68770747755427E-03  6.68770747755427E-03 -6.68770747755427E-03
  6.68770747755427E-03 -6.68770747755427E-03 -6.68770747755427E-03
  6.68770747755427E-03 -6.68770747755427E-03  6.68770747755427E-03
 -6.68770747755427E-03 -6.68770747755427E-03  6.68770747755427E-03
 -6.68770747755427E-03 -6.68770747755427E-03 -6.68770747755427E-03
 Total energy (etotal) [Ha]= -3.58581320403846E+02
 
 Difference of energy with previous step (new-old):
           Absolute (Ha)=-1.16056E-05
           Relative     =-3.23652E-08
 
--- Iteration: (   3/1000) Internal Cycle: (1/1)
--------------------------------------------------------------------------------
 
---SELF-CONSISTENT-FIELD CONVERGENCE--------------------------------------------

--- !BeginCycle
iteration_state: {dtset: 1, itime: 3, icycle: 1, }
solver: {iscf: 7, nstep: 100, nline: 4, wfoptalg: 0, }
tolerances: {toldfe: 1.00E-10, }
...
 
     iter   Etot(hartree)      deltaE(h)  residm     vres2
 ETOT  1  -356.80645673286    -3.568E+02 3.692E-03 3.636E+03
 ETOT  2  -357.75093305761    -9.445E-01 5.951E-03 1.171E+03
 ETOT  3  -358.32239403775    -5.715E-01 5.443E-03 3.943E+02
 ETOT  4  -358.58461181992    -2.622E-01 4.320E-04 4.005E+00
 ETOT  5  -358.58624378751    -1.632E-03 6.128E-04 2.237E-01
 ETOT  6  -358.58634141627    -9.763E-05 4.688E-05 3.545E-02
 ETOT  7  -358.58635868992    -1.727E-05 1.616E-04 5.247E-04
 ETOT  8  -358.58635898425    -2.943E-07 2.642E-05 1.569E-05
 ETOT  9  -358.58635899354    -9.298E-09 1.001E-04 2.679E-08
 ETOT 10  -358.58635899357    -2.933E-11 2.399E-05 1.874E-09
 ETOT 11  -358.58635899357     7.390E-13 8.173E-05 1.314E-10
 
 At SCF step   11, etot is converged : 
  for the second time, diff in etot=  7.390E-13 < toldfe=  1.000E-10
 
 Cartesian components of stress tensor (hartree/bohr^3)
  sigma(1 1)= -4.10523065E-04  sigma(3 2)=  0.00000000E+00
  sigma(2 2)= -4.10523065E-04  sigma(3 1)=  0.00000000E+00
  sigma(3 3)= -4.10523065E-04  sigma(2 1)=  0.00000000E+00
 

--- !ResultsGS
iteration_state: {dtset: 1, itime: 3, icycle: 1, }
comment   : Summary of ground state results
lattice_vectors:
- [  9.5914335,   0.0000000,   0.0000000, ]
- [  0.0000000,   9.5914335,   0.0000000, ]
- [  0.0000000,   0.0000000,   9.5914335, ]
lattice_lengths: [   9.59143,    9.59143,    9.59143, ]
lattice_angles: [ 90.000,  90.000,  90.000, ] # degrees, (23, 13, 12)
lattice_volume:   8.8236964E+02
convergence: {deltae:  7.390E-13, res2:  1.314E-10, residm:  8.173E-05, diffor: null, }
etotal    :  -3.58586359E+02
entropy   :   0.00000000E+00
fermie    :   2.85736520E-01
cartesian_stress_tensor: # hartree/bohr^3
- [ -4.10523065E-04,   0.00000000E+00,   0.00000000E+00, ]
- [  0.00000000E+00,  -4.10523065E-04,   0.00000000E+00, ]
- [  0.00000000E+00,   0.00000000E+00,  -4.10523065E-04, ]
pressure_GPa:   1.2078E+01
xred      :
- [  0.0000E+00,   0.0000E+00,   0.0000E+00, Hf]
- [  0.0000E+00,   5.0000E-01,   5.0000E-01, Hf]
- [  5.0000E-01,   0.0000E+00,   5.0000E-01, Hf]
- [  5.0000E-01,   5.0000E-01,   0.0000E+00, Hf]
- [  2.9224E-01,   2.0776E-01,   7.9224E-01,  O]
- [  2.9224E-01,   7.0776E-01,   7.0776E-01,  O]
- [  2.0776E-01,   7.0776E-01,   2.0776E-01,  O]
- [  2.0776E-01,   2.0776E-01,   2.9224E-01,  O]
- [  7.0776E-01,   2.9224E-01,   2.9224E-01,  O]
- [  7.0776E-01,   7.9224E-01,   2.0776E-01,  O]
- [  7.9224E-01,   7.9224E-01,   7.0776E-01,  O]
- [  7.9224E-01,   2.9224E-01,   7.9224E-01,  O]
cartesian_forces: # hartree/bohr
- [  0.00000000E+00,   7.22801448E-20,  -3.61400724E-20, ]
- [  0.00000000E+00,   7.22801448E-20,  -3.61400724E-20, ]
- [  0.00000000E+00,   7.22801448E-20,  -3.61400724E-20, ]
- [  0.00000000E+00,   7.22801448E-20,  -3.61400724E-20, ]
- [ -2.80257132E-03,   2.80257132E-03,  -2.80257132E-03, ]
- [ -2.80257132E-03,   2.80257132E-03,   2.80257132E-03, ]
- [  2.80257132E-03,   2.80257132E-03,   2.80257132E-03, ]
- [  2.80257132E-03,   2.80257132E-03,  -2.80257132E-03, ]
- [  2.80257132E-03,  -2.80257132E-03,  -2.80257132E-03, ]
- [  2.80257132E-03,  -2.80257132E-03,   2.80257132E-03, ]
- [ -2.80257132E-03,  -2.80257132E-03,   2.80257132E-03, ]
- [ -2.80257132E-03,  -2.80257132E-03,  -2.80257132E-03, ]
force_length_stats: {min:   8.08116586E-20, max:   4.85419591E-03, mean:   3.23613061E-03, }
...

 Integrated electronic density in atomic spheres:
 ------------------------------------------------
 Atom  Sphere_radius  Integrated_density
    1        2.00000          8.29187238
    2        2.00000          8.31524808
    3        2.00000          8.31524808
    4        2.00000          8.31524808
    5        2.00000          6.38280197
    6        2.00000          6.37990970
    7        2.00000          6.38280197
    8        2.00000          6.38280197
    9        2.00000          6.37990970
   10        2.00000          6.38280197
   11        2.00000          6.38280197
   12        2.00000          6.38280197
 
---OUTPUT-----------------------------------------------------------------------
 
 Cartesian coordinates (xcart) [bohr]
  0.00000000000000E+00  0.00000000000000E+00  0.00000000000000E+00
  0.00000000000000E+00  4.79571674441906E+00  4.79571674441906E+00
  4.79571674441906E+00  0.00000000000000E+00  4.79571674441906E+00
  4.79571674441906E+00  4.79571674441906E+00  0.00000000000000E+00
  2.80304513128984E+00  1.99267161312922E+00  7.59876187570890E+00
  2.80304513128984E+00  6.78838835754828E+00  6.78838835754828E+00
  1.99267161312922E+00  6.78838835754828E+00  1.99267161312922E+00
  1.99267161312922E+00  1.99267161312922E+00  2.80304513128984E+00
  6.78838835754828E+00  2.80304513128984E+00  2.80304513128984E+00
  6.78838835754828E+00  7.59876187570889E+00  1.99267161312922E+00
  7.59876187570890E+00  7.59876187570889E+00  6.78838835754828E+00
  7.59876187570890E+00  2.80304513128984E+00  7.59876187570890E+00
 Reduced coordinates (xred)
  0.00000000000000E+00  0.00000000000000E+00  0.00000000000000E+00
  0.00000000000000E+00  5.00000000000000E-01  5.00000000000000E-01
  5.00000000000000E-01  0.00000000000000E+00  5.00000000000000E-01
  5.00000000000000E-01  5.00000000000000E-01  0.00000000000000E+00
  2.92244650870158E-01  2.07755349129842E-01  7.92244650870158E-01
  2.92244650870158E-01  7.07755349129842E-01  7.07755349129842E-01
  2.07755349129842E-01  7.07755349129842E-01  2.07755349129842E-01
  2.07755349129842E-01  2.07755349129842E-01  2.92244650870158E-01
  7.07755349129842E-01  2.92244650870158E-01  2.92244650870158E-01
  7.07755349129842E-01  7.92244650870158E-01  2.07755349129842E-01
  7.92244650870158E-01  7.92244650870158E-01  7.07755349129842E-01
  7.92244650870158E-01  2.92244650870158E-01  7.92244650870158E-01
 Cartesian forces (fcart) [Ha/bohr]; max,rms= 2.80257E-03 2.28829E-03 (free atoms)
  0.00000000000000E+00  7.22801448323670E-20 -3.61400724161835E-20
  0.00000000000000E+00  7.22801448323670E-20 -3.61400724161835E-20
  0.00000000000000E+00  7.22801448323670E-20 -3.61400724161835E-20
  0.00000000000000E+00  7.22801448323670E-20 -3.61400724161835E-20
 -2.80257131617854E-03  2.80257131617854E-03 -2.80257131617854E-03
 -2.80257131617854E-03  2.80257131617854E-03  2.80257131617854E-03
  2.80257131617854E-03  2.80257131617854E-03  2.80257131617854E-03
  2.80257131617854E-03  2.80257131617854E-03 -2.80257131617854E-03
  2.80257131617854E-03 -2.80257131617854E-03 -2.80257131617854E-03
  2.80257131617854E-03 -2.80257131617854E-03  2.80257131617854E-03
 -2.80257131617854E-03 -2.80257131617854E-03  2.80257131617854E-03
 -2.80257131617854E-03 -2.80257131617854E-03 -2.80257131617854E-03
 Gradient of E wrt nuclear positions in reduced coordinates (gred)
  0.00000000000000E+00 -6.93270201723234E-19  3.46635100861617E-19
  0.00000000000000E+00 -6.93270201723234E-19  3.46635100861617E-19
  0.00000000000000E+00 -6.93270201723234E-19  3.46635100861617E-19
  0.00000000000000E+00 -6.93270201723234E-19  3.46635100861617E-19
  2.68806763768520E-02 -2.68806763768520E-02  2.68806763768520E-02
  2.68806763768520E-02 -2.68806763768520E-02 -2.68806763768520E-02
 -2.68806763768520E-02 -2.68806763768520E-02 -2.68806763768520E-02
 -2.68806763768520E-02 -2.68806763768520E-02  2.68806763768520E-02
 -2.68806763768520E-02  2.68806763768520E-02  2.68806763768520E-02
 -2.68806763768520E-02  2.68806763768520E-02 -2.68806763768520E-02
  2.68806763768520E-02  2.68806763768520E-02 -2.68806763768520E-02
  2.68806763768520E-02  2.68806763768520E-02  2.68806763768520E-02
 Total energy (etotal) [Ha]= -3.58586358993573E+02
 
 Difference of energy with previous step (new-old):
           Absolute (Ha)=-5.03859E-03
           Relative     =-1.40514E-05
 
--- Iteration: (   4/1000) Internal Cycle: (1/1)
--------------------------------------------------------------------------------
 
---SELF-CONSISTENT-FIELD CONVERGENCE--------------------------------------------

--- !BeginCycle
iteration_state: {dtset: 1, itime: 4, icycle: 1, }
solver: {iscf: 7, nstep: 100, nline: 4, wfoptalg: 0, }
tolerances: {toldfe: 1.00E-10, }
...
 
     iter   Etot(hartree)      deltaE(h)  residm     vres2
 ETOT  1  -357.47932581902    -3.575E+02 2.041E-03 2.249E+03
 ETOT  2  -358.32173105625    -8.424E-01 1.342E-03 3.429E+02
 ETOT  3  -358.46149570913    -1.398E-01 2.071E-03 1.720E+02
 ETOT  4  -358.58013429308    -1.186E-01 2.941E-04 1.246E+00
 ETOT  5  -358.58061217129    -4.779E-04 5.990E-04 3.329E-02
 ETOT  6  -358.58062000900    -7.838E-06 3.943E-05 1.100E-02
 ETOT  7  -358.58062715374    -7.145E-06 2.508E-04 1.898E-04
 ETOT  8  -358.58062727843    -1.247E-07 1.885E-05 3.415E-06
 ETOT  9  -358.58062727973    -1.300E-09 1.525E-04 3.502E-07
 ETOT 10  -358.58062727994    -2.054E-10 1.698E-05 1.816E-09
 ETOT 11  -358.58062727994    -2.444E-12 1.358E-04 1.860E-11
 ETOT 12  -358.58062727994     3.411E-13 1.856E-05 3.537E-13
 
 At SCF step   12, etot is converged : 
  for the second time, diff in etot=  3.411E-13 < toldfe=  1.000E-10
 
 Cartesian components of stress tensor (hartree/bohr^3)
  sigma(1 1)= -5.60582146E-04  sigma(3 2)=  0.00000000E+00
  sigma(2 2)= -5.60582146E-04  sigma(3 1)=  0.00000000E+00
  sigma(3 3)= -5.60582146E-04  sigma(2 1)=  0.00000000E+00
 

--- !ResultsGS
iteration_state: {dtset: 1, itime: 4, icycle: 1, }
comment   : Summary of ground state results
lattice_vectors:
- [  9.5914335,   0.0000000,   0.0000000, ]
- [  0.0000000,   9.5914335,   0.0000000, ]
- [  0.0000000,   0.0000000,   9.5914335, ]
lattice_lengths: [   9.59143,    9.59143,    9.59143, ]
lattice_angles: [ 90.000,  90.000,  90.000, ] # degrees, (23, 13, 12)
lattice_volume:   8.8236964E+02
convergence: {deltae:  3.411E-13, res2:  3.537E-13, residm:  1.856E-05, diffor: null, }
etotal    :  -3.58580627E+02
entropy   :   0.00000000E+00
fermie    :   2.80696028E-01
cartesian_stress_tensor: # hartree/bohr^3
- [ -5.60582146E-04,   0.00000000E+00,   0.00000000E+00, ]
- [  0.00000000E+00,  -5.60582146E-04,   0.00000000E+00, ]
- [  0.00000000E+00,   0.00000000E+00,  -5.60582146E-04, ]
pressure_GPa:   1.6493E+01
xred      :
- [  4.1504E-21,  -5.1590E-21,  -3.3864E-21, Hf]
- [  4.1504E-21,   5.0000E-01,   5.0000E-01, Hf]
- [  5.0000E-01,  -5.1590E-21,   5.0000E-01, Hf]
- [  5.0000E-01,   5.0000E-01,  -3.3864E-21, Hf]
- [  3.1425E-01,   1.8575E-01,   8.1425E-01,  O]
- [  3.1425E-01,   6.8575E-01,   6.8575E-01,  O]
- [  1.8575E-01,   6.8575E-01,   1.8575E-01,  O]
- [  1.8575E-01,   1.8575E-01,   3.1425E-01,  O]
- [  6.8575E-01,   3.1425E-01,   3.1425E-01,  O]
- [  6.8575E-01,   8.1425E-01,   1.8575E-01,  O]
- [  8.1425E-01,   8.1425E-01,   6.8575E-01,  O]
- [  8.1425E-01,   3.1425E-01,   8.1425E-01,  O]
cartesian_forces: # hartree/bohr
- [  0.00000000E+00,   9.03501810E-21,  -9.03501810E-21, ]
- [  0.00000000E+00,   9.03501810E-21,  -9.03501810E-21, ]
- [  0.00000000E+00,   9.03501810E-21,  -9.03501810E-21, ]
- [  0.00000000E+00,   9.03501810E-21,  -9.03501810E-21, ]
- [  3.32327081E-04,  -3.32327081E-04,   3.32327081E-04, ]
- [  3.32327081E-04,  -3.32327081E-04,  -3.32327081E-04, ]
- [ -3.32327081E-04,  -3.32327081E-04,  -3.32327081E-04, ]
- [ -3.32327081E-04,  -3.32327081E-04,   3.32327081E-04, ]
- [ -3.32327081E-04,   3.32327081E-04,   3.32327081E-04, ]
- [ -3.32327081E-04,   3.32327081E-04,  -3.32327081E-04, ]
- [  3.32327081E-04,   3.32327081E-04,  -3.32327081E-04, ]
- [  3.32327081E-04,   3.32327081E-04,   3.32327081E-04, ]
force_length_stats: {min:   1.27774451E-20, max:   5.75607389E-04, mean:   3.83738260E-04, }
...

 Integrated electronic density in atomic spheres:
 ------------------------------------------------
 Atom  Sphere_radius  Integrated_density
    1        2.00000          8.31353232
    2        2.00000          8.33723513
    3        2.00000          8.33723513
    4        2.00000          8.33723513
    5        2.00000          6.40001192
    6        2.00000          6.39518768
    7        2.00000          6.40001192
    8        2.00000          6.40001192
    9        2.00000          6.39518768
   10        2.00000          6.40001192
   11        2.00000          6.40001192
   12        2.00000          6.40001192
 
---OUTPUT-----------------------------------------------------------------------
 
 Cartesian coordinates (xcart) [bohr]
  3.98086777381519E-20 -4.94821677810894E-20 -3.24804254877623E-20
  3.98086777381519E-20  4.79571674441906E+00  4.79571674441906E+00
  4.79571674441906E+00 -4.94821677810894E-20  4.79571674441906E+00
  4.79571674441906E+00  4.79571674441906E+00 -3.24804254877623E-20
  3.01415291276067E+00  1.78156383165838E+00  7.80986965717973E+00
  3.01415291276067E+00  6.57728057607744E+00  6.57728057607744E+00
  1.78156383165838E+00  6.57728057607744E+00  1.78156383165838E+00
  1.78156383165838E+00  1.78156383165838E+00  3.01415291276067E+00
  6.57728057607744E+00  3.01415291276067E+00  3.01415291276067E+00
  6.57728057607744E+00  7.80986965717973E+00  1.78156383165838E+00
  7.80986965717973E+00  7.80986965717973E+00  6.57728057607744E+00
  7.80986965717973E+00  3.01415291276067E+00  7.80986965717973E+00
 Reduced coordinates (xred)
  4.15044088920375E-21 -5.15899608110441E-21 -3.38639949133369E-21
  4.15044088920375E-21  5.00000000000000E-01  5.00000000000000E-01
  5.00000000000000E-01 -5.15899608110441E-21  5.00000000000000E-01
  5.00000000000000E-01  5.00000000000000E-01 -3.38639949133369E-21
  3.14254685315636E-01  1.85745314684364E-01  8.14254685315636E-01
  3.14254685315636E-01  6.85745314684364E-01  6.85745314684364E-01
  1.85745314684364E-01  6.85745314684364E-01  1.85745314684364E-01
  1.85745314684364E-01  1.85745314684364E-01  3.14254685315636E-01
  6.85745314684364E-01  3.14254685315636E-01  3.14254685315636E-01
  6.85745314684364E-01  8.14254685315635E-01  1.85745314684364E-01
  8.14254685315636E-01  8.14254685315635E-01  6.85745314684364E-01
  8.14254685315636E-01  3.14254685315636E-01  8.14254685315636E-01
 Cartesian forces (fcart) [Ha/bohr]; max,rms= 3.32327E-04 2.71344E-04 (free atoms)
  0.00000000000000E+00  9.03501810404587E-21 -9.03501810404587E-21
  0.00000000000000E+00  9.03501810404587E-21 -9.03501810404587E-21
  0.00000000000000E+00  9.03501810404587E-21 -9.03501810404587E-21
  0.00000000000000E+00  9.03501810404587E-21 -9.03501810404587E-21
  3.32327081267537E-04 -3.32327081267537E-04  3.32327081267537E-04
  3.32327081267537E-04 -3.32327081267537E-04 -3.32327081267537E-04
 -3.32327081267537E-04 -3.32327081267537E-04 -3.32327081267537E-04
 -3.32327081267537E-04 -3.32327081267537E-04  3.32327081267537E-04
 -3.32327081267537E-04  3.32327081267537E-04  3.32327081267537E-04
 -3.32327081267537E-04  3.32327081267537E-04 -3.32327081267537E-04
  3.32327081267537E-04  3.32327081267537E-04 -3.32327081267537E-04
  3.32327081267537E-04  3.32327081267537E-04  3.32327081267537E-04
 Gradient of E wrt nuclear positions in reduced coordinates (gred)
  0.00000000000000E+00 -8.66587752154042E-20  8.66587752154042E-20
  0.00000000000000E+00 -8.66587752154042E-20  8.66587752154042E-20
  0.00000000000000E+00 -8.66587752154042E-20  8.66587752154042E-20
  0.00000000000000E+00 -8.66587752154042E-20  8.66587752154042E-20
 -3.18749309651728E-03  3.18749309651728E-03 -3.18749309651728E-03
 -3.18749309651728E-03  3.18749309651728E-03  3.18749309651728E-03
  3.18749309651728E-03  3.18749309651728E-03  3.18749309651728E-03
  3.18749309651728E-03  3.18749309651728E-03 -3.18749309651728E-03
  3.18749309651728E-03 -3.18749309651728E-03 -3.18749309651728E-03
  3.18749309651728E-03 -3.18749309651728E-03  3.18749309651728E-03
 -3.18749309651728E-03 -3.18749309651728E-03  3.18749309651728E-03
 -3.18749309651728E-03 -3.18749309651728E-03 -3.18749309651728E-03
 Total energy (etotal) [Ha]= -3.58580627279942E+02
 
 Difference of energy with previous step (new-old):
           Absolute (Ha)= 5.73171E-03
           Relative     = 1.59843E-05
 
--- Iteration: (   5/1000) Internal Cycle: (1/1)
--------------------------------------------------------------------------------
 
---SELF-CONSISTENT-FIELD CONVERGENCE--------------------------------------------

--- !BeginCycle
iteration_state: {dtset: 1, itime: 5, icycle: 1, }
solver: {iscf: 7, nstep: 100, nline: 4, wfoptalg: 0, }
tolerances: {toldfe: 1.00E-10, }
...
 
     iter   Etot(hartree)      deltaE(h)  residm     vres2
 ETOT  1  -358.56736951378    -3.586E+02 7.966E-05 2.822E+01
 ETOT  2  -358.57790886603    -1.054E-02 6.205E-05 3.596E+00
 ETOT  3  -358.57924874871    -1.340E-03 7.349E-05 1.793E+00
 ETOT  4  -358.58050954306    -1.261E-03 4.878E-05 1.598E-02
 ETOT  5  -358.58051639680    -6.854E-06 8.110E-05 6.333E-04
 ETOT  6  -358.58051648348    -8.668E-08 4.145E-05 4.901E-05
 ETOT  7  -358.58051651641    -3.293E-08 7.389E-05 1.148E-06
 ETOT  8  -358.58051651723    -8.170E-10 3.641E-05 1.130E-08
 ETOT  9  -358.58051651723    -6.025E-12 6.611E-05 3.786E-10
 ETOT 10  -358.58051651723     8.527E-13 3.159E-05 1.797E-11
 
 At SCF step   10, etot is converged : 
  for the second time, diff in etot=  8.527E-13 < toldfe=  1.000E-10
 
 Cartesian components of stress tensor (hartree/bohr^3)
  sigma(1 1)= -5.51182648E-04  sigma(3 2)=  0.00000000E+00
  sigma(2 2)= -5.51182648E-04  sigma(3 1)=  0.00000000E+00
  sigma(3 3)= -5.51182648E-04  sigma(2 1)=  0.00000000E+00
 

--- !ResultsGS
iteration_state: {dtset: 1, itime: 5, icycle: 1, }
comment   : Summary of ground state results
lattice_vectors:
- [  9.5914335,   0.0000000,   0.0000000, ]
- [  0.0000000,   9.5914335,   0.0000000, ]
- [  0.0000000,   0.0000000,   9.5914335, ]
lattice_lengths: [   9.59143,    9.59143,    9.59143, ]
lattice_angles: [ 90.000,  90.000,  90.000, ] # degrees, (23, 13, 12)
lattice_volume:   8.8236964E+02
convergence: {deltae:  8.527E-13, res2:  1.797E-11, residm:  3.159E-05, diffor: null, }
etotal    :  -3.58580517E+02
entropy   :   0.00000000E+00
fermie    :   2.81924972E-01
cartesian_stress_tensor: # hartree/bohr^3
- [ -5.51182648E-04,   0.00000000E+00,   0.00000000E+00, ]
- [  0.00000000E+00,  -5.51182648E-04,   0.00000000E+00, ]
- [  0.00000000E+00,   0.00000000E+00,  -5.51182648E-04, ]
pressure_GPa:   1.6216E+01
xred      :
- [  3.7105E-21,  -3.6735E-21,  -5.9889E-21, Hf]
- [  3.7105E-21,   5.0000E-01,   5.0000E-01, Hf]
- [  5.0000E-01,  -3.6735E-21,   5.0000E-01, Hf]
- [  5.0000E-01,   5.0000E-01,  -5.9889E-21, Hf]
- [  3.1192E-01,   1.8808E-01,   8.1192E-01,  O]
- [  3.1192E-01,   6.8808E-01,   6.8808E-01,  O]
- [  1.8808E-01,   6.8808E-01,   1.8808E-01,  O]
- [  1.8808E-01,   1.8808E-01,   3.1192E-01,  O]
- [  6.8808E-01,   3.1192E-01,   3.1192E-01,  O]
- [  6.8808E-01,   8.1192E-01,   1.8808E-01,  O]
- [  8.1192E-01,   8.1192E-01,   6.8808E-01,  O]
- [  8.1192E-01,   3.1192E-01,   8.1192E-01,  O]
cartesian_forces: # hartree/bohr
- [ -1.12937726E-21,   0.00000000E+00,   1.12937726E-21, ]
- [ -1.12937726E-21,   0.00000000E+00,   1.12937726E-21, ]
- [ -1.12937726E-21,   0.00000000E+00,   1.12937726E-21, ]
- [ -1.12937726E-21,   0.00000000E+00,   1.12937726E-21, ]
- [  7.37820384E-05,  -7.37820384E-05,   7.37820384E-05, ]
- [  7.37820384E-05,  -7.37820384E-05,  -7.37820384E-05, ]
- [ -7.37820384E-05,  -7.37820384E-05,  -7.37820384E-05, ]
- [ -7.37820384E-05,  -7.37820384E-05,   7.37820384E-05, ]
- [ -7.37820384E-05,   7.37820384E-05,   7.37820384E-05, ]
- [ -7.37820384E-05,   7.37820384E-05,  -7.37820384E-05, ]
- [  7.37820384E-05,   7.37820384E-05,  -7.37820384E-05, ]
- [  7.37820384E-05,   7.37820384E-05,   7.37820384E-05, ]
force_length_stats: {min:   1.59718064E-21, max:   1.27794239E-04, mean:   8.51961595E-05, }
...

 Integrated electronic density in atomic spheres:
 ------------------------------------------------
 Atom  Sphere_radius  Integrated_density
    1        2.00000          8.31174308
    2        2.00000          8.33542779
    3        2.00000          8.33542779
    4        2.00000          8.33542779
    5        2.00000          6.39872591
    6        2.00000          6.37995231
    7        2.00000          6.39872591
    8        2.00000          6.39872591
    9        2.00000          6.37995231
   10        2.00000          6.39872591
   11        2.00000          6.39872591
   12        2.00000          6.39872591
 
---OUTPUT-----------------------------------------------------------------------
 
 Cartesian coordinates (xcart) [bohr]
  3.55886042287145E-20 -3.52340883185787E-20 -5.74421407388072E-20
  3.55886042287145E-20  4.79571674441906E+00  4.79571674441906E+00
  4.79571674441906E+00 -3.52340883185787E-20  4.79571674441906E+00
  4.79571674441906E+00  4.79571674441906E+00 -5.74421407388072E-20
  2.99177361239604E+00  1.80394313202302E+00  7.78749035681509E+00
  2.99177361239604E+00  6.59965987644209E+00  6.59965987644209E+00
  1.80394313202302E+00  6.59965987644209E+00  1.80394313202302E+00
  1.80394313202302E+00  1.80394313202302E+00  2.99177361239604E+00
  6.59965987644209E+00  2.99177361239604E+00  2.99177361239604E+00
  6.59965987644209E+00  7.78749035681508E+00  1.80394313202302E+00
  7.78749035681509E+00  7.78749035681508E+00  6.59965987644209E+00
  7.78749035681509E+00  2.99177361239604E+00  7.78749035681509E+00
 Reduced coordinates (xred)
  3.71045728150335E-21 -3.67349555825850E-21 -5.98890049184563E-21
  3.71045728150335E-21  5.00000000000000E-01  5.00000000000000E-01
  5.00000000000000E-01 -3.67349555825850E-21  5.00000000000000E-01
  5.00000000000000E-01  5.00000000000000E-01 -5.98890049184563E-21
  3.11921426122349E-01  1.88078573877652E-01  8.11921426122347E-01
  3.11921426122349E-01  6.88078573877653E-01  6.88078573877653E-01
  1.88078573877652E-01  6.88078573877653E-01  1.88078573877652E-01
  1.88078573877652E-01  1.88078573877652E-01  3.11921426122349E-01
  6.88078573877653E-01  3.11921426122349E-01  3.11921426122349E-01
  6.88078573877653E-01  8.11921426122347E-01  1.88078573877652E-01
  8.11921426122347E-01  8.11921426122347E-01  6.88078573877653E-01
  8.11921426122347E-01  3.11921426122349E-01  8.11921426122347E-01
 Cartesian forces (fcart) [Ha/bohr]; max,rms= 7.37820E-05 6.02428E-05 (free atoms)
 -1.12937726300573E-21  0.00000000000000E+00  1.12937726300573E-21
 -1.12937726300573E-21  0.00000000000000E+00  1.12937726300573E-21
 -1.12937726300573E-21  0.00000000000000E+00  1.12937726300573E-21
 -1.12937726300573E-21  0.00000000000000E+00  1.12937726300573E-21
  7.37820384478498E-05 -7.37820384478498E-05  7.37820384478498E-05
  7.37820384478498E-05 -7.37820384478499E-05 -7.37820384478498E-05
 -7.37820384478498E-05 -7.37820384478499E-05 -7.37820384478498E-05
 -7.37820384478498E-05 -7.37820384478498E-05  7.37820384478498E-05
 -7.37820384478498E-05  7.37820384478498E-05  7.37820384478498E-05
 -7.37820384478498E-05  7.37820384478498E-05 -7.37820384478498E-05
  7.37820384478498E-05  7.37820384478498E-05 -7.37820384478498E-05
  7.37820384478498E-05  7.37820384478498E-05  7.37820384478498E-05
 Gradient of E wrt nuclear positions in reduced coordinates (gred)
  1.08323469019255E-20  0.00000000000000E+00 -1.08323469019255E-20
  1.08323469019255E-20  0.00000000000000E+00 -1.08323469019255E-20
  1.08323469019255E-20  0.00000000000000E+00 -1.08323469019255E-20
  1.08323469019255E-20  0.00000000000000E+00 -1.08323469019255E-20
 -7.07675514443449E-04  7.07675514443449E-04 -7.07675514443449E-04
 -7.07675514443448E-04  7.07675514443449E-04  7.07675514443449E-04
  7.07675514443449E-04  7.07675514443449E-04  7.07675514443449E-04
  7.07675514443448E-04  7.07675514443449E-04 -7.07675514443448E-04
  7.07675514443449E-04 -7.07675514443449E-04 -7.07675514443448E-04
  7.07675514443448E-04 -7.07675514443449E-04  7.07675514443448E-04
 -7.07675514443448E-04 -7.07675514443449E-04  7.07675514443449E-04
 -7.07675514443449E-04 -7.07675514443449E-04 -7.07675514443449E-04
 Total energy (etotal) [Ha]= -3.58580516517234E+02
 
 Difference of energy with previous step (new-old):
           Absolute (Ha)= 1.10763E-04
           Relative     = 3.08892E-07
 
--- Iteration: (   6/1000) Internal Cycle: (1/1)
--------------------------------------------------------------------------------
 
---SELF-CONSISTENT-FIELD CONVERGENCE--------------------------------------------

--- !BeginCycle
iteration_state: {dtset: 1, itime: 6, icycle: 1, }
solver: {iscf: 7, nstep: 100, nline: 4, wfoptalg: 0, }
tolerances: {toldfe: 1.00E-10, }
...
 
     iter   Etot(hartree)      deltaE(h)  residm     vres2
 ETOT  1  -358.57943368376    -3.586E+02 5.957E-05 2.304E+00
 ETOT  2  -358.58030014272    -8.665E-04 4.138E-05 2.915E-01
 ETOT  3  -358.58040895676    -1.088E-04 3.504E-05 1.443E-01
 ETOT  4  -358.58051060077    -1.016E-04 3.100E-05 1.303E-03
 ETOT  5  -358.58051116784    -5.671E-07 3.091E-05 5.156E-05
 ETOT  6  -358.58051117511    -7.273E-09 2.108E-05 3.418E-06
 ETOT  7  -358.58051117746    -2.345E-09 2.286E-05 9.421E-08
 ETOT  8  -358.58051117752    -6.310E-11 1.390E-05 8.005E-10
 ETOT  9  -358.58051117752    -3.354E-12 1.680E-05 2.887E-11
 
 At SCF step    9, etot is converged : 
  for the second time, diff in etot=  3.354E-12 < toldfe=  1.000E-10
 
 Cartesian components of stress tensor (hartree/bohr^3)
  sigma(1 1)= -5.48245455E-04  sigma(3 2)=  0.00000000E+00
  sigma(2 2)= -5.48245455E-04  sigma(3 1)=  0.00000000E+00
  sigma(3 3)= -5.48245455E-04  sigma(2 1)=  0.00000000E+00
 

--- !ResultsGS
iteration_state: {dtset: 1, itime: 6, icycle: 1, }
comment   : Summary of ground state results
lattice_vectors:
- [  9.5914335,   0.0000000,   0.0000000, ]
- [  0.0000000,   9.5914335,   0.0000000, ]
- [  0.0000000,   0.0000000,   9.5914335, ]
lattice_lengths: [   9.59143,    9.59143,    9.59143, ]
lattice_angles: [ 90.000,  90.000,  90.000, ] # degrees, (23, 13, 12)
lattice_volume:   8.8236964E+02
convergence: {deltae: -3.354E-12, res2:  2.887E-11, residm:  1.680E-05, diffor: null, }
etotal    :  -3.58580511E+02
entropy   :   0.00000000E+00
fermie    :   2.82253951E-01
cartesian_stress_tensor: # hartree/bohr^3
- [ -5.48245455E-04,   0.00000000E+00,   0.00000000E+00, ]
- [  0.00000000E+00,  -5.48245455E-04,   0.00000000E+00, ]
- [  0.00000000E+00,   0.00000000E+00,  -5.48245455E-04, ]
pressure_GPa:   1.6130E+01
xred      :
- [  3.4335E-21,  -3.0417E-21,  -5.7226E-21, Hf]
- [  3.4335E-21,   5.0000E-01,   5.0000E-01, Hf]
- [  5.0000E-01,  -3.0417E-21,   5.0000E-01, Hf]
- [  5.0000E-01,   5.0000E-01,  -5.7226E-21, Hf]
- [  3.1126E-01,   1.8874E-01,   8.1126E-01,  O]
- [  3.1126E-01,   6.8874E-01,   6.8874E-01,  O]
- [  1.8874E-01,   6.8874E-01,   1.8874E-01,  O]
- [  1.8874E-01,   1.8874E-01,   3.1126E-01,  O]
- [  6.8874E-01,   3.1126E-01,   3.1126E-01,  O]
- [  6.8874E-01,   8.1126E-01,   1.8874E-01,  O]
- [  8.1126E-01,   8.1126E-01,   6.8874E-01,  O]
- [  8.1126E-01,   3.1126E-01,   8.1126E-01,  O]
cartesian_forces: # hartree/bohr
- [ -7.05860789E-23,   7.05860789E-23,   7.05860789E-23, ]
- [ -7.05860789E-23,   7.05860789E-23,   7.05860789E-23, ]
- [ -7.05860789E-23,   7.05860789E-23,   7.05860789E-23, ]
- [ -7.05860789E-23,   7.05860789E-23,   7.05860789E-23, ]
- [ -6.17530820E-06,   6.17530820E-06,  -6.17530820E-06, ]
- [ -6.17530820E-06,   6.17530820E-06,   6.17530820E-06, ]
- [  6.17530820E-06,   6.17530820E-06,   6.17530820E-06, ]
- [  6.17530820E-06,   6.17530820E-06,  -6.17530820E-06, ]
- [  6.17530820E-06,  -6.17530820E-06,  -6.17530820E-06, ]
- [  6.17530820E-06,  -6.17530820E-06,   6.17530820E-06, ]
- [ -6.17530820E-06,  -6.17530820E-06,   6.17530820E-06, ]
- [ -6.17530820E-06,  -6.17530820E-06,  -6.17530820E-06, ]
force_length_stats: {min:   1.22258675E-22, max:   1.06959476E-05, mean:   7.13063171E-06, }
...

 Integrated electronic density in atomic spheres:
 ------------------------------------------------
 Atom  Sphere_radius  Integrated_density
    1        2.00000          8.31120506
    2        2.00000          8.33488367
    3        2.00000          8.33488367
    4        2.00000          8.33488367
    5        2.00000          6.39840879
    6        2.00000          6.37588659
    7        2.00000          6.39840879
    8        2.00000          6.39840879
    9        2.00000          6.37588659
   10        2.00000          6.39840879
   11        2.00000          6.39840879
   12        2.00000          6.39840879
 
---OUTPUT-----------------------------------------------------------------------
 
 Cartesian coordinates (xcart) [bohr]
  3.29326326892811E-20 -2.91742495611724E-20 -5.48880917204110E-20
  3.29326326892811E-20  4.79571674441906E+00  4.79571674441906E+00
  4.79571674441906E+00 -2.91742495611724E-20  4.79571674441906E+00
  4.79571674441906E+00  4.79571674441906E+00 -5.48880917204110E-20
  2.98538714146652E+00  1.81032960295255E+00  7.78110388588557E+00
  2.98538714146652E+00  6.60604634737161E+00  6.60604634737161E+00
  1.81032960295254E+00  6.60604634737161E+00  1.81032960295254E+00
  1.81032960295254E+00  1.81032960295254E+00  2.98538714146652E+00
  6.60604634737161E+00  2.98538714146652E+00  2.98538714146652E+00
  6.60604634737161E+00  7.78110388588557E+00  1.81032960295254E+00
  7.78110388588557E+00  7.78110388588557E+00  6.60604634737161E+00
  7.78110388588557E+00  2.98538714146652E+00  7.78110388588557E+00
 Reduced coordinates (xred)
  3.43354647953363E-21 -3.04169857353684E-21 -5.72261610157504E-21
  3.43354647953363E-21  5.00000000000000E-01  5.00000000000000E-01
  5.00000000000000E-01 -3.04169857353684E-21  5.00000000000000E-01
  5.00000000000000E-01  5.00000000000000E-01 -5.72261610157504E-21
  3.11255574564607E-01  1.88744425435394E-01  8.11255574564606E-01
  3.11255574564607E-01  6.88744425435394E-01  6.88744425435394E-01
  1.88744425435394E-01  6.88744425435394E-01  1.88744425435394E-01
  1.88744425435394E-01  1.88744425435394E-01  3.11255574564607E-01
  6.88744425435394E-01  3.11255574564607E-01  3.11255574564607E-01
  6.88744425435394E-01  8.11255574564606E-01  1.88744425435394E-01
  8.11255574564606E-01  8.11255574564606E-01  6.88744425435394E-01
  8.11255574564606E-01  3.11255574564607E-01  8.11255574564606E-01
 Cartesian forces (fcart) [Ha/bohr]; max,rms= 6.17531E-06 5.04212E-06 (free atoms)
 -7.05860789378584E-23  7.05860789378584E-23  7.05860789378584E-23
 -7.05860789378584E-23  7.05860789378584E-23  7.05860789378584E-23
 -7.05860789378584E-23  7.05860789378584E-23  7.05860789378584E-23
 -7.05860789378584E-23  7.05860789378584E-23  7.05860789378584E-23
 -6.17530820169342E-06  6.17530820169342E-06 -6.17530820169342E-06
 -6.17530820169342E-06  6.17530820169342E-06  6.17530820169342E-06
  6.17530820169342E-06  6.17530820169342E-06  6.17530820169342E-06
  6.17530820169342E-06  6.17530820169342E-06 -6.17530820169342E-06
  6.17530820169342E-06 -6.17530820169342E-06 -6.17530820169342E-06
  6.17530820169342E-06 -6.17530820169342E-06  6.17530820169342E-06
 -6.17530820169342E-06 -6.17530820169342E-06  6.17530820169342E-06
 -6.17530820169342E-06 -6.17530820169342E-06 -6.17530820169342E-06
 Gradient of E wrt nuclear positions in reduced coordinates (gred)
  6.77021681370345E-22 -6.77021681370345E-22 -6.77021681370345E-22
  6.77021681370345E-22 -6.77021681370345E-22 -6.77021681370345E-22
  6.77021681370345E-22 -6.77021681370345E-22 -6.77021681370345E-22
  6.77021681370345E-22 -6.77021681370345E-22 -6.77021681370345E-22
  5.92300578896189E-05 -5.92300578896189E-05  5.92300578896189E-05
  5.92300578896189E-05 -5.92300578896190E-05 -5.92300578896189E-05
 -5.92300578896190E-05 -5.92300578896189E-05 -5.92300578896189E-05
 -5.92300578896189E-05 -5.92300578896189E-05  5.92300578896190E-05
 -5.92300578896190E-05  5.92300578896190E-05  5.92300578896189E-05
 -5.92300578896189E-05  5.92300578896190E-05 -5.92300578896189E-05
  5.92300578896190E-05  5.92300578896190E-05 -5.92300578896189E-05
  5.92300578896189E-05  5.92300578896189E-05  5.92300578896189E-05
 Total energy (etotal) [Ha]= -3.58580511177523E+02
 
 Difference of energy with previous step (new-old):
           Absolute (Ha)= 5.33971E-06
           Relative     = 1.48912E-08
 
 At Broyd/MD step   6, gradients are converged : 
  max grad (force/stress) = 6.1753E-06 < tolmxf= 5.0000E-05 ha/bohr (free atoms)
 
================================================================================
 
 ----iterations are completed or convergence reached----
 
 Mean square residual over all n,k,spin=   10.506E-09; max=  16.798E-06
 reduced coordinates (array xred) for   12 atoms
       0.000000000000     -0.000000000000     -0.000000000000
       0.000000000000      0.500000000000      0.500000000000
       0.500000000000     -0.000000000000      0.500000000000
       0.500000000000      0.500000000000     -0.000000000000
       0.311255574565      0.188744425435      0.811255574565
       0.311255574565      0.688744425435      0.688744425435
       0.188744425435      0.688744425435      0.188744425435
       0.188744425435      0.188744425435      0.311255574565
       0.688744425435      0.311255574565      0.311255574565
       0.688744425435      0.811255574565      0.188744425435
       0.811255574565      0.811255574565      0.688744425435
       0.811255574565      0.311255574565      0.811255574565
 rms dE/dt=  4.8361E-05; max dE/dt=  5.9230E-05; dE/dt below (all hartree)
    1       0.000000000000      0.000000000000      0.000000000000
    2       0.000000000000      0.000000000000      0.000000000000
    3       0.000000000000      0.000000000000      0.000000000000
    4       0.000000000000      0.000000000000      0.000000000000
    5       0.000059230058     -0.000059230058      0.000059230058
    6       0.000059230058     -0.000059230058     -0.000059230058
    7      -0.000059230058     -0.000059230058     -0.000059230058
    8      -0.000059230058     -0.000059230058      0.000059230058
    9      -0.000059230058      0.000059230058      0.000059230058
   10      -0.000059230058      0.000059230058     -0.000059230058
   11       0.000059230058      0.000059230058     -0.000059230058
   12       0.000059230058      0.000059230058      0.000059230058
 
 cartesian coordinates (angstrom) at end:
    1      0.00000000000000    -0.00000000000000    -0.00000000000000
    2      0.00000000000000     2.53778400000000     2.53778400000000
    3      2.53778400000000    -0.00000000000000     2.53778400000000
    4      2.53778400000000     2.53778400000000    -0.00000000000000
    5      1.57979883408173     0.95798516591827     4.11758283408173
    6      1.57979883408173     3.49576916591827     3.49576916591827
    7      0.95798516591827     3.49576916591827     0.95798516591827
    8      0.95798516591827     0.95798516591827     1.57979883408173
    9      3.49576916591827     1.57979883408173     1.57979883408173
   10      3.49576916591827     4.11758283408173     0.95798516591827
   11      4.11758283408173     4.11758283408173     3.49576916591827
   12      4.11758283408173     1.57979883408173     4.11758283408173
 
 cartesian forces (hartree/bohr) at end:
    1     -0.00000000000000     0.00000000000000     0.00000000000000
    2     -0.00000000000000     0.00000000000000     0.00000000000000
    3     -0.00000000000000     0.00000000000000     0.00000000000000
    4     -0.00000000000000     0.00000000000000     0.00000000000000
    5     -0.00000617530820     0.00000617530820    -0.00000617530820
    6     -0.00000617530820     0.00000617530820     0.00000617530820
    7      0.00000617530820     0.00000617530820     0.00000617530820
    8      0.00000617530820     0.00000617530820    -0.00000617530820
    9      0.00000617530820    -0.00000617530820    -0.00000617530820
   10      0.00000617530820    -0.00000617530820     0.00000617530820
   11     -0.00000617530820    -0.00000617530820     0.00000617530820
   12     -0.00000617530820    -0.00000617530820    -0.00000617530820
 frms,max,avg= 5.0421180E-06 6.1753082E-06   0.000E+00  0.000E+00  0.000E+00 h/b
 
 cartesian forces (eV/Angstrom) at end:
    1     -0.00000000000000     0.00000000000000     0.00000000000000
    2     -0.00000000000000     0.00000000000000     0.00000000000000
    3     -0.00000000000000     0.00000000000000     0.00000000000000
    4     -0.00000000000000     0.00000000000000     0.00000000000000
    5     -0.00031754708858     0.00031754708858    -0.00031754708858
    6     -0.00031754708858     0.00031754708858     0.00031754708858
    7      0.00031754708858     0.00031754708858     0.00031754708858
    8      0.00031754708858     0.00031754708858    -0.00031754708858
    9      0.00031754708858    -0.00031754708858    -0.00031754708858
   10      0.00031754708858    -0.00031754708858     0.00031754708858
   11     -0.00031754708858    -0.00031754708858     0.00031754708858
   12     -0.00031754708858    -0.00031754708858    -0.00031754708858
 frms,max,avg= 2.5927611E-04 3.1754709E-04   0.000E+00  0.000E+00  0.000E+00 e/A
 length scales=  9.591433488838  9.591433488838  9.591433488838 bohr
              =  5.075568000000  5.075568000000  5.075568000000 angstroms
 prteigrs : about to open file o_EIG
 Fermi (or HOMO) energy (hartree) =   0.28225   Average Vxc (hartree)=  -0.44620
 Eigenvalues (hartree) for nkpt= 112  k points:
 kpt#   1, nband= 50, wtk=  0.00463, kpt=  0.0000  0.0000  0.0000 (reduced coord)
  -1.94505   -1.94435   -1.94435   -1.94435   -0.80810   -0.80810   -0.80810   -0.79990
  -0.79566   -0.79566   -0.79566   -0.79359   -0.79359   -0.78988   -0.78988   -0.78988
  -0.39423   -0.34499   -0.34498   -0.34498   -0.30892   -0.30891   -0.30891   -0.28754
   0.06608    0.06609    0.06609    0.09420    0.09420    0.09420    0.16920    0.16920
   0.17213    0.17213    0.17213    0.18549    0.18652    0.18652    0.21730    0.21731
   0.21731    0.26431    0.26431    0.26432    0.27663    0.27663    0.27663    0.28225
   0.45976    0.45978
 prteigrs : prtvol=0 or 1, do not print more k-points.
 

--- !EnergyTerms
iteration_state     : {dtset: 1, itime: 6, icycle: 1, }
comment             : Components of total free energy in Hartree
kinetic             :  1.46576925880431E+02
hartree             :  5.60653105533111E+01
xc                  : -9.09881755707093E+01
Ewald energy        : -2.69808403837895E+02
psp_core            :  1.49595106529080E+01
local_psp           : -2.06226255852877E+02
non_local_psp       : -9.15942300269155E+00
total_energy        : -3.58580511177523E+02
total_energy_eV     : -9.75747193436659E+03
band_energy         : -3.12700289365053E+01
...

 rms coord change=  6.8606E-03   atom, delta coord (reduced):
     1        0.000000000000     -0.000000000000     -0.000000000000
     2        0.000000000000      0.000000000000      0.000000000000
     3        0.000000000000     -0.000000000000      0.000000000000
     4        0.000000000000      0.000000000000     -0.000000000000
     5       -0.008402535435      0.008402535435     -0.008402535435
     6       -0.008402535435      0.008402535435      0.008402535435
     7        0.008402535435      0.008402535435      0.008402535435
     8        0.008402535435      0.008402535435     -0.008402535435
     9        0.008402535435     -0.008402535435     -0.008402535435
    10        0.008402535435     -0.008402535435      0.008402535435
    11       -0.008402535435     -0.008402535435      0.008402535435
    12       -0.008402535435     -0.008402535435     -0.008402535435
 
 Cartesian components of stress tensor (hartree/bohr^3)
  sigma(1 1)= -5.48245455E-04  sigma(3 2)=  0.00000000E+00
  sigma(2 2)= -5.48245455E-04  sigma(3 1)=  0.00000000E+00
  sigma(3 3)= -5.48245455E-04  sigma(2 1)=  0.00000000E+00
 
-Cartesian components of stress tensor (GPa)         [Pressure=  1.6130E+01 GPa]
- sigma(1 1)= -1.61299355E+01  sigma(3 2)=  0.00000000E+00
- sigma(2 2)= -1.61299355E+01  sigma(3 1)=  0.00000000E+00
- sigma(3 3)= -1.61299355E+01  sigma(2 1)=  0.00000000E+00
 
== END DATASET(S) ==============================================================
================================================================================
  
 -outvars: echo values of variables after computation  --------
            acell      9.5914334888E+00  9.5914334888E+00  9.5914334888E+00 Bohr
              amu      1.78490000E+02  1.59994000E+01
          chkprim           0
             ecut      2.50000000E+01 Hartree
           ecutsm      5.00000000E-01 Hartree
           etotal     -3.5858051118E+02
            fcart     -7.0586078938E-23  7.0586078938E-23  7.0586078938E-23
                      -7.0586078938E-23  7.0586078938E-23  7.0586078938E-23
                      -7.0586078938E-23  7.0586078938E-23  7.0586078938E-23
                      -7.0586078938E-23  7.0586078938E-23  7.0586078938E-23
                      -6.1753082017E-06  6.1753082017E-06 -6.1753082017E-06
                      -6.1753082017E-06  6.1753082017E-06  6.1753082017E-06
                       6.1753082017E-06  6.1753082017E-06  6.1753082017E-06
                       6.1753082017E-06  6.1753082017E-06 -6.1753082017E-06
                       6.1753082017E-06 -6.1753082017E-06 -6.1753082017E-06
                       6.1753082017E-06 -6.1753082017E-06  6.1753082017E-06
                      -6.1753082017E-06 -6.1753082017E-06  6.1753082017E-06
                      -6.1753082017E-06 -6.1753082017E-06 -6.1753082017E-06
-          fftalg         512
           ionmov           2
           istwfk        2    0    0    3    0    0    0    0    0    0
                         0    0    0    0    0    0    6    0    0    7
                         0    0    0    0    0    0    0    0    0    0
                         0    0    0    0    0    0    0    0    0    0
                         0    0    0    0    0    0    0    0    0    0
                       outvar_i_n : Printing only first  50 k-points.
              ixc          11
              kpt      0.00000000E+00  0.00000000E+00  0.00000000E+00
                       1.66666667E-01  0.00000000E+00  0.00000000E+00
                       3.33333333E-01  0.00000000E+00  0.00000000E+00
                       5.00000000E-01  0.00000000E+00  0.00000000E+00
                       0.00000000E+00  1.66666667E-01  0.00000000E+00
                       1.66666667E-01  1.66666667E-01  0.00000000E+00
                       3.33333333E-01  1.66666667E-01  0.00000000E+00
                       5.00000000E-01  1.66666667E-01  0.00000000E+00
                      -3.33333333E-01  1.66666667E-01  0.00000000E+00
                      -1.66666667E-01  1.66666667E-01  0.00000000E+00
                       0.00000000E+00  3.33333333E-01  0.00000000E+00
                       1.66666667E-01  3.33333333E-01  0.00000000E+00
                       3.33333333E-01  3.33333333E-01  0.00000000E+00
                       5.00000000E-01  3.33333333E-01  0.00000000E+00
                      -3.33333333E-01  3.33333333E-01  0.00000000E+00
                      -1.66666667E-01  3.33333333E-01  0.00000000E+00
                       0.00000000E+00  5.00000000E-01  0.00000000E+00
                       1.66666667E-01  5.00000000E-01  0.00000000E+00
                       3.33333333E-01  5.00000000E-01  0.00000000E+00
                       5.00000000E-01  5.00000000E-01  0.00000000E+00
                       0.00000000E+00  0.00000000E+00  1.66666667E-01
                       1.66666667E-01  0.00000000E+00  1.66666667E-01
                       3.33333333E-01  0.00000000E+00  1.66666667E-01
                       5.00000000E-01  0.00000000E+00  1.66666667E-01
                      -3.33333333E-01  0.00000000E+00  1.66666667E-01
                      -1.66666667E-01  0.00000000E+00  1.66666667E-01
                       0.00000000E+00  1.66666667E-01  1.66666667E-01
                       1.66666667E-01  1.66666667E-01  1.66666667E-01
                       3.33333333E-01  1.66666667E-01  1.66666667E-01
                       5.00000000E-01  1.66666667E-01  1.66666667E-01
                      -3.33333333E-01  1.66666667E-01  1.66666667E-01
                      -1.66666667E-01  1.66666667E-01  1.66666667E-01
                       0.00000000E+00  3.33333333E-01  1.66666667E-01
                       1.66666667E-01  3.33333333E-01  1.66666667E-01
                       3.33333333E-01  3.33333333E-01  1.66666667E-01
                       5.00000000E-01  3.33333333E-01  1.66666667E-01
                      -3.33333333E-01  3.33333333E-01  1.66666667E-01
                      -1.66666667E-01  3.33333333E-01  1.66666667E-01
                       0.00000000E+00  5.00000000E-01  1.66666667E-01
                       1.66666667E-01  5.00000000E-01  1.66666667E-01
                       3.33333333E-01  5.00000000E-01  1.66666667E-01
                       5.00000000E-01  5.00000000E-01  1.66666667E-01
                      -3.33333333E-01  5.00000000E-01  1.66666667E-01
                      -1.66666667E-01  5.00000000E-01  1.66666667E-01
                       0.00000000E+00 -3.33333333E-01  1.66666667E-01
                       1.66666667E-01 -3.33333333E-01  1.66666667E-01
                       3.33333333E-01 -3.33333333E-01  1.66666667E-01
                       5.00000000E-01 -3.33333333E-01  1.66666667E-01
                      -3.33333333E-01 -3.33333333E-01  1.66666667E-01
                      -1.66666667E-01 -3.33333333E-01  1.66666667E-01
                       outvar_i_n : Printing only first  50 k-points.
           kptopt           2
         kptrlatt        6    0    0      0    6    0      0    0    6
          kptrlen      5.75486009E+01
P           mkmem           4
            natom          12
            nband          50
            ngfft          45      45      45
             nkpt         112
            nstep         100
             nsym          24
            ntime        1000
           ntypat           2
              occ      2.000000  2.000000  2.000000  2.000000  2.000000  2.000000
                       2.000000  2.000000  2.000000  2.000000  2.000000  2.000000
                       2.000000  2.000000  2.000000  2.000000  2.000000  2.000000
                       2.000000  2.000000  2.000000  2.000000  2.000000  2.000000
                       2.000000  2.000000  2.000000  2.000000  2.000000  2.000000
                       2.000000  2.000000  2.000000  2.000000  2.000000  2.000000
                       2.000000  2.000000  2.000000  2.000000  2.000000  2.000000
                       2.000000  2.000000  2.000000  2.000000  2.000000  2.000000
                       0.000000  0.000000
        pawecutdg      2.50000000E+01 Hartree
         pawxcdev           0
          spgroup         205
           strten     -5.4824545525E-04 -5.4824545525E-04 -5.4824545525E-04
                       0.0000000000E+00  0.0000000000E+00  0.0000000000E+00
           symrel      1  0  0   0  1  0   0  0  1      -1  0  0   0 -1  0   0  0 -1
                      -1  0  0   0  1  0   0  0 -1       1  0  0   0 -1  0   0  0  1
                      -1  0  0   0 -1  0   0  0  1       1  0  0   0  1  0   0  0 -1
                       1  0  0   0 -1  0   0  0 -1      -1  0  0   0  1  0   0  0  1
                       0  0  1   1  0  0   0  1  0       0  0 -1  -1  0  0   0 -1  0
                       0  0 -1   1  0  0   0 -1  0       0  0  1  -1  0  0   0  1  0
                       0  0 -1  -1  0  0   0  1  0       0  0  1   1  0  0   0 -1  0
                       0  0  1  -1  0  0   0 -1  0       0  0 -1   1  0  0   0  1  0
                       0  1  0   0  0  1   1  0  0       0 -1  0   0  0 -1  -1  0  0
                       0 -1  0   0  0  1  -1  0  0       0  1  0   0  0 -1   1  0  0
                       0 -1  0   0  0 -1   1  0  0       0  1  0   0  0  1  -1  0  0
                       0  1  0   0  0 -1  -1  0  0       0 -1  0   0  0  1   1  0  0
            tnons      0.0000000  0.0000000  0.0000000     0.0000000  0.0000000  0.0000000
                       0.5000000  0.5000000  0.0000000     0.5000000  0.5000000  0.0000000
                       0.0000000  0.5000000  0.5000000     0.0000000  0.5000000  0.5000000
                       0.5000000  0.0000000  0.5000000     0.5000000  0.0000000  0.5000000
                       0.5000000  0.5000000  0.0000000     0.5000000  0.5000000  0.0000000
                       0.0000000  0.5000000  0.5000000     0.0000000  0.5000000  0.5000000
                       0.0000000  0.0000000  0.0000000     0.0000000  0.0000000  0.0000000
                       0.5000000  0.0000000  0.5000000     0.5000000  0.0000000  0.5000000
                       0.0000000  0.5000000  0.5000000     0.0000000  0.5000000  0.5000000
                       0.0000000  0.0000000  0.0000000     0.0000000  0.0000000  0.0000000
                       0.5000000  0.5000000  0.0000000     0.5000000  0.5000000  0.0000000
                       0.5000000  0.0000000  0.5000000     0.5000000  0.0000000  0.5000000
           toldfe      1.00000000E-10 Hartree
           tsmear      4.00000000E-02 Hartree
            typat      1  1  1  1  2  2  2  2  2  2  2  2
              wtk        0.00463    0.00926    0.00926    0.00463    0.00926    0.00926
                         0.00926    0.00926    0.00926    0.00926    0.00926    0.00926
                         0.00926    0.00926    0.00926    0.00926    0.00463    0.00926
                         0.00926    0.00463    0.00926    0.00926    0.00926    0.00926
                         0.00926    0.00926    0.00926    0.00926    0.00926    0.00926
                         0.00926    0.00926    0.00926    0.00926    0.00926    0.00926
                         0.00926    0.00926    0.00926    0.00926    0.00926    0.00926
                         0.00926    0.00926    0.00926    0.00926    0.00926    0.00926
                         0.00926    0.00926
                       outvars : Printing only first  50 k-points.
           xangst      1.7427198638E-20 -1.5438347945E-20 -2.9045527161E-20
                       1.7427198638E-20  2.5377840000E+00  2.5377840000E+00
                       2.5377840000E+00 -1.5438347945E-20  2.5377840000E+00
                       2.5377840000E+00  2.5377840000E+00 -2.9045527161E-20
                       1.5797988341E+00  9.5798516592E-01  4.1175828341E+00
                       1.5797988341E+00  3.4957691659E+00  3.4957691659E+00
                       9.5798516592E-01  3.4957691659E+00  9.5798516592E-01
                       9.5798516592E-01  9.5798516592E-01  1.5797988341E+00
                       3.4957691659E+00  1.5797988341E+00  1.5797988341E+00
                       3.4957691659E+00  4.1175828341E+00  9.5798516592E-01
                       4.1175828341E+00  4.1175828341E+00  3.4957691659E+00
                       4.1175828341E+00  1.5797988341E+00  4.1175828341E+00
            xcart      3.2932632689E-20 -2.9174249561E-20 -5.4888091720E-20
                       3.2932632689E-20  4.7957167444E+00  4.7957167444E+00
                       4.7957167444E+00 -2.9174249561E-20  4.7957167444E+00
                       4.7957167444E+00  4.7957167444E+00 -5.4888091720E-20
                       2.9853871415E+00  1.8103296030E+00  7.7811038859E+00
                       2.9853871415E+00  6.6060463474E+00  6.6060463474E+00
                       1.8103296030E+00  6.6060463474E+00  1.8103296030E+00
                       1.8103296030E+00  1.8103296030E+00  2.9853871415E+00
                       6.6060463474E+00  2.9853871415E+00  2.9853871415E+00
                       6.6060463474E+00  7.7811038859E+00  1.8103296030E+00
                       7.7811038859E+00  7.7811038859E+00  6.6060463474E+00
                       7.7811038859E+00  2.9853871415E+00  7.7811038859E+00
             xred      3.4335464795E-21 -3.0416985735E-21 -5.7226161016E-21
                       3.4335464795E-21  5.0000000000E-01  5.0000000000E-01
                       5.0000000000E-01 -3.0416985735E-21  5.0000000000E-01
                       5.0000000000E-01  5.0000000000E-01 -5.7226161016E-21
                       3.1125557456E-01  1.8874442544E-01  8.1125557456E-01
                       3.1125557456E-01  6.8874442544E-01  6.8874442544E-01
                       1.8874442544E-01  6.8874442544E-01  1.8874442544E-01
                       1.8874442544E-01  1.8874442544E-01  3.1125557456E-01
                       6.8874442544E-01  3.1125557456E-01  3.1125557456E-01
                       6.8874442544E-01  8.1125557456E-01  1.8874442544E-01
                       8.1125557456E-01  8.1125557456E-01  6.8874442544E-01
                       8.1125557456E-01  3.1125557456E-01  8.1125557456E-01
            znucl       72.00000    8.00000
 
================================================================================


- Timing analysis has been suppressed with timopt=0



================================================================================

 Suggested references for the acknowledgment of ABINIT usage.

 The users of ABINIT have little formal obligations with respect to the ABINIT group
 (those specified in the GNU General Public License, http://www.gnu.org/copyleft/gpl.txt).
 However, it is common practice in the scientific literature,
 to acknowledge the efforts of people that have made the research possible.
 In this spirit, please find below suggested citations of work written by ABINIT developers,
 corresponding to implementations inside of ABINIT that you have used in the present run.
 Note also that it will be of great value to readers of publications presenting these results,
 to read papers enabling them to understand the theoretical formalism and details
 of the ABINIT implementation.
 For information on why they are suggested, see also https://docs.abinit.org/theory/acknowledgments.
-
- [1] Specification of an extensible and portable file format for electronic structure and crystallographic data
- X. Gonze, C.-O. Almbladh, A. Cucca, D. Caliste, C. Freysoldt, M. Marques, V. Olevano, Y. Pouillon, M.J. Verstraete,
- Comput. Material Science 43, 1056 (2008).
- Comment: to be cited in case the ETSF_IO file format is used, i.e. iomode=3.
- DOI and bibtex: see https://docs.abinit.org/theory/bibliography/#gonze2008
-
- [2] The Abinit project: Impact, environment and recent developments.
- Computer Phys. Comm. 248, 107042 (2020).
- X.Gonze, B. Amadon, G. Antonius, F.Arnardi, L.Baguet, J.-M.Beuken,
- J.Bieder, F.Bottin, J.Bouchet, E.Bousquet, N.Brouwer, F.Bruneval,
- G.Brunin, T.Cavignac, J.-B. Charraud, Wei Chen, M.Cote, S.Cottenier,
- J.Denier, G.Geneste, Ph.Ghosez, M.Giantomassi, Y.Gillet, O.Gingras,
- D.R.Hamann, G.Hautier, Xu He, N.Helbig, N.Holzwarth, Y.Jia, F.Jollet,
- W.Lafargue-Dit-Hauret, K.Lejaeghere, M.A.L.Marques, A.Martin, C.Martins,
- H.P.C. Miranda, F.Naccarato, K. Persson, G.Petretto, V.Planes, Y.Pouillon,
- S.Prokhorenko, F.Ricci, G.-M.Rignanese, A.H.Romero, M.M.Schmitt, M.Torrent,
- M.J.van Setten, B.Van Troeye, M.J.Verstraete, G.Zerah and J.W.Zwanzig
- Comment: the fifth generic paper describing the ABINIT project.
- Note that a version of this paper, that is not formatted for Computer Phys. Comm. 
- is available at https://www.abinit.org/sites/default/files/ABINIT20.pdf .
- The licence allows the authors to put it on the Web.
- DOI and bibtex: see https://docs.abinit.org/theory/bibliography/#gonze2020
-
- [3] Optimized norm-conserving Vanderbilt pseudopotentials.
- D.R. Hamann, Phys. Rev. B 88, 085117 (2013).
- Comment: Some pseudopotential generated using the ONCVPSP code were used.
- DOI and bibtex: see https://docs.abinit.org/theory/bibliography/#hamann2013
-
- [4] ABINIT: Overview, and focus on selected capabilities
- J. Chem. Phys. 152, 124102 (2020).
- A. Romero, D.C. Allan, B. Amadon, G. Antonius, T. Applencourt, L.Baguet,
- J.Bieder, F.Bottin, J.Bouchet, E.Bousquet, F.Bruneval,
- G.Brunin, D.Caliste, M.Cote,
- J.Denier, C. Dreyer, Ph.Ghosez, M.Giantomassi, Y.Gillet, O.Gingras,
- D.R.Hamann, G.Hautier, F.Jollet, G. Jomard,
- A.Martin, 
- H.P.C. Miranda, F.Naccarato, G.Petretto, N.A. Pike, V.Planes,
- S.Prokhorenko, T. Rangel, F.Ricci, G.-M.Rignanese, M.Royo, M.Stengel, M.Torrent,
- M.J.van Setten, B.Van Troeye, M.J.Verstraete, J.Wiktor, J.W.Zwanziger, and X.Gonze.
- Comment: a global overview of ABINIT, with focus on selected capabilities .
- Note that a version of this paper, that is not formatted for J. Chem. Phys 
- is available at https://www.abinit.org/sites/default/files/ABINIT20_JPC.pdf .
- The licence allows the authors to put it on the Web.
- DOI and bibtex: see https://docs.abinit.org/theory/bibliography/#romero2020
-
- [5] Recent developments in the ABINIT software package.
- Computer Phys. Comm. 205, 106 (2016).
- X.Gonze, F.Jollet, F.Abreu Araujo, D.Adams, B.Amadon, T.Applencourt,
- C.Audouze, J.-M.Beuken, J.Bieder, A.Bokhanchuk, E.Bousquet, F.Bruneval
- D.Caliste, M.Cote, F.Dahm, F.Da Pieve, M.Delaveau, M.Di Gennaro,
- B.Dorado, C.Espejo, G.Geneste, L.Genovese, A.Gerossier, M.Giantomassi,
- Y.Gillet, D.R.Hamann, L.He, G.Jomard, J.Laflamme Janssen, S.Le Roux,
- A.Levitt, A.Lherbier, F.Liu, I.Lukacevic, A.Martin, C.Martins,
- M.J.T.Oliveira, S.Ponce, Y.Pouillon, T.Rangel, G.-M.Rignanese,
- A.H.Romero, B.Rousseau, O.Rubel, A.A.Shukri, M.Stankovski, M.Torrent,
- M.J.Van Setten, B.Van Troeye, M.J.Verstraete, D.Waroquier, J.Wiktor,
- B.Xu, A.Zhou, J.W.Zwanziger.
- Comment: the fourth generic paper describing the ABINIT project.
- Note that a version of this paper, that is not formatted for Computer Phys. Comm. 
- is available at https://www.abinit.org/sites/default/files/ABINIT16.pdf .
- The licence allows the authors to put it on the Web.
- DOI and bibtex: see https://docs.abinit.org/theory/bibliography/#gonze2016
-
- Proc.   0 individual time (sec): cpu=        403.6  wall=        408.2
 
================================================================================
 
 Calculation completed.
.Delivered   0 WARNINGs and   0 COMMENTs to log file.
+Overall time at end (sec) : cpu=      14647.8  wall=      14693.6
