
.Version 9.4.1 of ABINIT 
.(MPI version, prepared for a x86_64_linux_intel19.0 computer) 

.Copyright (C) 1998-2021 ABINIT group . 
 ABINIT comes with ABSOLUTELY NO WARRANTY.
 It is free software, and you are welcome to redistribute it
 under certain conditions (GNU General Public License,
 see ~abinit/COPYING or http://www.gnu.org/copyleft/gpl.txt).

 ABINIT is a project of the Universite Catholique de Louvain,
 Corning Inc. and other collaborators, see ~abinit/doc/developers/contributors.txt .
 Please read https://docs.abinit.org/theory/acknowledgments for suggested
 acknowledgments of the ABINIT effort.
 For more information, see https://www.abinit.org .

.Starting date : Fri  2 Jul 2021.
- ( at 15h54 )
  
- input  file    -> PATH17
- output file    -> PATH17.abo
- root for input  files -> i
- root for output files -> o
 
 
 Symmetries : space group P1 (#  1); Bravais aP (primitive triclinic)
================================================================================
 Values of the parameters that define the memory need of the present run
     intxc =       0    ionmov =       0      iscf =       7    lmnmax =       8
     lnmax =       8     mgfft =      45  mpssoang =       4    mqgrid =    3001
     natom =      12  nloc_mem =       1    nspden =       1   nspinor =       1
    nsppol =       1      nsym =       1    n1xccc =    2501    ntypat =       2
    occopt =       1   xclevel =       2
-    mband =          50        mffmem =           1         mkmem =           4
       mpw =        5280          nfft =       91125          nkpt =         112
================================================================================
P This job should need less than                      45.554 Mbytes of memory.
  Rough estimation (10% accuracy) of disk space for files :
_ WF disk file :    451.174 Mbytes ; DEN or POT disk file :      0.697 Mbytes.
================================================================================
 
--------------------------------------------------------------------------------
------------- Echo of variables that govern the present computation ------------
--------------------------------------------------------------------------------
-
- outvars: echo of selected default values                                      
-   iomode0 =  3 , fftalg0 =512 , wfoptalg0 =  0
-
- outvars: echo of global parameters not present in the input file              
-  max_nthreads =    0
-
 -outvars: echo values of preprocessed input variables --------
            acell      9.5914334888E+00  9.5914334888E+00  9.5914334888E+00 Bohr
              amu      1.78490000E+02  1.59994000E+01
          chkprim           0
             ecut      2.50000000E+01 Hartree
           ecutsm      5.00000000E-01 Hartree
-          fftalg         512
           istwfk        2    0    0    3    0    0    0    0    0    0
                         0    0    0    0    0    0    6    0    0    7
                         0    0    0    0    0    0    0    0    0    0
                         0    0    0    0    0    0    0    0    0    0
                         0    0    0    0    0    0    0    0    0    0
                       outvar_i_n : Printing only first  50 k-points.
              ixc          11
              kpt      0.00000000E+00  0.00000000E+00  0.00000000E+00
                       1.66666667E-01  0.00000000E+00  0.00000000E+00
                       3.33333333E-01  0.00000000E+00  0.00000000E+00
                       5.00000000E-01  0.00000000E+00  0.00000000E+00
                       0.00000000E+00  1.66666667E-01  0.00000000E+00
                       1.66666667E-01  1.66666667E-01  0.00000000E+00
                       3.33333333E-01  1.66666667E-01  0.00000000E+00
                       5.00000000E-01  1.66666667E-01  0.00000000E+00
                      -3.33333333E-01  1.66666667E-01  0.00000000E+00
                      -1.66666667E-01  1.66666667E-01  0.00000000E+00
                       0.00000000E+00  3.33333333E-01  0.00000000E+00
                       1.66666667E-01  3.33333333E-01  0.00000000E+00
                       3.33333333E-01  3.33333333E-01  0.00000000E+00
                       5.00000000E-01  3.33333333E-01  0.00000000E+00
                      -3.33333333E-01  3.33333333E-01  0.00000000E+00
                      -1.66666667E-01  3.33333333E-01  0.00000000E+00
                       0.00000000E+00  5.00000000E-01  0.00000000E+00
                       1.66666667E-01  5.00000000E-01  0.00000000E+00
                       3.33333333E-01  5.00000000E-01  0.00000000E+00
                       5.00000000E-01  5.00000000E-01  0.00000000E+00
                       0.00000000E+00  0.00000000E+00  1.66666667E-01
                       1.66666667E-01  0.00000000E+00  1.66666667E-01
                       3.33333333E-01  0.00000000E+00  1.66666667E-01
                       5.00000000E-01  0.00000000E+00  1.66666667E-01
                      -3.33333333E-01  0.00000000E+00  1.66666667E-01
                      -1.66666667E-01  0.00000000E+00  1.66666667E-01
                       0.00000000E+00  1.66666667E-01  1.66666667E-01
                       1.66666667E-01  1.66666667E-01  1.66666667E-01
                       3.33333333E-01  1.66666667E-01  1.66666667E-01
                       5.00000000E-01  1.66666667E-01  1.66666667E-01
                      -3.33333333E-01  1.66666667E-01  1.66666667E-01
                      -1.66666667E-01  1.66666667E-01  1.66666667E-01
                       0.00000000E+00  3.33333333E-01  1.66666667E-01
                       1.66666667E-01  3.33333333E-01  1.66666667E-01
                       3.33333333E-01  3.33333333E-01  1.66666667E-01
                       5.00000000E-01  3.33333333E-01  1.66666667E-01
                      -3.33333333E-01  3.33333333E-01  1.66666667E-01
                      -1.66666667E-01  3.33333333E-01  1.66666667E-01
                       0.00000000E+00  5.00000000E-01  1.66666667E-01
                       1.66666667E-01  5.00000000E-01  1.66666667E-01
                       3.33333333E-01  5.00000000E-01  1.66666667E-01
                       5.00000000E-01  5.00000000E-01  1.66666667E-01
                      -3.33333333E-01  5.00000000E-01  1.66666667E-01
                      -1.66666667E-01  5.00000000E-01  1.66666667E-01
                       0.00000000E+00 -3.33333333E-01  1.66666667E-01
                       1.66666667E-01 -3.33333333E-01  1.66666667E-01
                       3.33333333E-01 -3.33333333E-01  1.66666667E-01
                       5.00000000E-01 -3.33333333E-01  1.66666667E-01
                      -3.33333333E-01 -3.33333333E-01  1.66666667E-01
                      -1.66666667E-01 -3.33333333E-01  1.66666667E-01
                       outvar_i_n : Printing only first  50 k-points.
           kptopt           2
         kptrlatt        6    0    0      0    6    0      0    0    6
          kptrlen      5.75486009E+01
P           mkmem           4
            natom          12
            nband          50
            ngfft          45      45      45
             nkpt         112
            nstep         100
             nsym           1
           ntypat           2
              occ      2.000000  2.000000  2.000000  2.000000  2.000000  2.000000
                       2.000000  2.000000  2.000000  2.000000  2.000000  2.000000
                       2.000000  2.000000  2.000000  2.000000  2.000000  2.000000
                       2.000000  2.000000  2.000000  2.000000  2.000000  2.000000
                       2.000000  2.000000  2.000000  2.000000  2.000000  2.000000
                       2.000000  2.000000  2.000000  2.000000  2.000000  2.000000
                       2.000000  2.000000  2.000000  2.000000  2.000000  2.000000
                       2.000000  2.000000  2.000000  2.000000  2.000000  2.000000
                       0.000000  0.000000
        pawecutdg      2.50000000E+01 Hartree
         pawxcdev           0
          spgroup           1
        symmorphi           0
           tolmxf      1.00000000E-05
           tolvrs      1.00000000E-18
           tsmear      4.00000000E-02 Hartree
            typat      1  1  1  1  2  2  2  2  2  2  2  2
              wtk        0.00463    0.00926    0.00926    0.00463    0.00926    0.00926
                         0.00926    0.00926    0.00926    0.00926    0.00926    0.00926
                         0.00926    0.00926    0.00926    0.00926    0.00463    0.00926
                         0.00926    0.00463    0.00926    0.00926    0.00926    0.00926
                         0.00926    0.00926    0.00926    0.00926    0.00926    0.00926
                         0.00926    0.00926    0.00926    0.00926    0.00926    0.00926
                         0.00926    0.00926    0.00926    0.00926    0.00926    0.00926
                         0.00926    0.00926    0.00926    0.00926    0.00926    0.00926
                         0.00926    0.00926
                       outvars : Printing only first  50 k-points.
           xangst      0.0000000000E+00  0.0000000000E+00  5.0755680000E-08
                       1.0821110976E-04  2.5377954708E+00  2.2315512289E+00
                       2.3776611989E+00  4.1010589440E-05  2.5378091748E+00
                       2.3775075107E+00  2.5377837462E+00 -3.0614871969E-01
                       9.9316039800E-01  1.2717407641E+00  3.5760082853E+00
                       9.9281576693E-01  3.8101972261E+00  3.7311618008E+00
                       1.3851689486E+00  3.8099488785E+00  1.1935838689E+00
                       1.3847389973E+00  1.2716015920E+00  1.0383007233E+00
                       4.0758234737E+00  7.5527055606E-01  1.7058010047E+00
                       4.0763566113E+00  3.2923820941E+00  5.2536925212E-01
                       3.3772992905E+00  3.2922640871E+00  3.0632296394E+00
                       3.3775407861E+00  7.5504342440E-01  4.2437910220E+00
            xcart      0.0000000000E+00  0.0000000000E+00  9.5914334888E-08
                       2.0448936198E-04  4.7957384211E+00  4.2170206741E+00
                       4.4931285027E+00  7.7498782590E-05  4.7957643179E+00
                       4.4928380741E+00  4.7957162648E+00 -5.7853723615E-01
                       1.8768011582E+00  2.4032417561E+00  6.7576763081E+00
                       1.8761498999E+00  7.2002292695E+00  7.0508739610E+00
                       2.6175899607E+00  7.1997599607E+00  2.2555466288E+00
                       2.6167774704E+00  2.4029787590E+00  1.9621040107E+00
                       7.7021901312E+00  1.4272545072E+00  3.2234967360E+00
                       7.7031976154E+00  6.2217004826E+00  9.9280400514E-01
                       6.3821707279E+00  6.2214774818E+00  5.7886651006E+00
                       6.3826270883E+00  1.4268252905E+00  8.0196027967E+00
             xred      0.0000000000E+00  0.0000000000E+00  1.0000000000E-08
                       2.1320000000E-05  5.0000226000E-01  4.3966532000E-01
                       4.6845224000E-01  8.0800000000E-06  5.0000496000E-01
                       4.6842196000E-01  4.9999995000E-01 -6.0318120000E-02
                       1.9567473000E-01  2.5056127000E-01  7.0455332000E-01
                       1.9560683000E-01  7.5069376000E-01  7.3512202000E-01
                       2.7290915000E-01  7.5064483000E-01  2.3516262000E-01
                       2.7282444000E-01  2.5053385000E-01  2.0456838000E-01
                       8.0302805000E-01  1.4880513000E-01  3.3608081000E-01
                       8.0313309000E-01  6.4867264000E-01  1.0350945000E-01
                       6.6540322000E-01  6.4864939000E-01  6.0352450000E-01
                       6.6545080000E-01  1.4876038000E-01  8.3612140000E-01
            znucl       72.00000    8.00000
 
================================================================================
 
 chkinp: Checking input parameters for consistency.
 
================================================================================
== DATASET  1 ==================================================================
-   mpi_nproc: 36, omp_nthreads: -1 (-1 if OMP is not activated)
-    --> not optimal distribution: autoparal keyword recommended in input file <--
 

--- !DatasetInfo
iteration_state: {dtset: 1, }
dimensions: {natom: 12, nkpt: 112, mband: 50, nsppol: 1, nspinor: 1, nspden: 1, mpw: 5280, }
cutoff_energies: {ecut:  25.0, pawecutdg:  25.0, }
electrons: {nelect:   9.60000000E+01, charge:   0.00000000E+00, occopt:   1.00000000E+00, tsmear:   4.00000000E-02, }
meta: {optdriver: 0, ionmov: 0, optcell: 0, iscf: 7, paral_kgb: 0, }
...

 Exchange-correlation functional for the present dataset will be:
  GGA: Perdew-Burke-Ernzerhof functional - ixc=11
 Citation for XC functional:
  J.P.Perdew, K.Burke, M.Ernzerhof, PRL 77, 3865 (1996)
 
 Real(R)+Recip(G) space primitive vectors, cartesian coordinates (Bohr,Bohr^-1):
 R(1)=  9.5914335  0.0000000  0.0000000  G(1)=  0.1042597  0.0000000  0.0000000
 R(2)=  0.0000000  9.5914335  0.0000000  G(2)=  0.0000000  0.1042597  0.0000000
 R(3)=  0.0000000  0.0000000  9.5914335  G(3)=  0.0000000  0.0000000  0.1042597
 Unit cell volume ucvol=  8.8236964E+02 bohr^3
 Angles (23,13,12)=  9.00000000E+01  9.00000000E+01  9.00000000E+01 degrees
 
 getcut: wavevector=  0.0000  0.0000  0.0000  ngfft=  45  45  45
         ecut(hartree)=     25.000   => boxcut(ratio)=   2.03814
 
--- Pseudopotential description ------------------------------------------------
- pspini: atom type   1  psp file is /workspace/jiahaoz/PACKAGE_INSTALL/abinit-9.4.1/pbe_s_sr/Hf.psp8
- pspatm: opening atomic psp file    /workspace/jiahaoz/PACKAGE_INSTALL/abinit-9.4.1/pbe_s_sr/Hf.psp8
- Hf    ONCVPSP  r_core=  1.72  1.72  1.72  2.43
- 72.00000  12.00000    160625                znucl, zion, pspdat
    8   11    3    4       600   0.00000      pspcod,pspxc,lmax,lloc,mmax,r2well
    5.99000000000000    5.40000000000000    0.00000000000000   rchrg,fchrg,qchrg
     nproj     2     2     2     2
     extension_switch     1
  pspatm : epsatm=   21.98649506
         --- l  ekb(1:nproj) -->
             0    5.812335   -0.521211
             1   -3.038329    2.466565
             2    2.060039    0.471534
             3    9.947446    0.353012
 pspatm: atomic psp has been read  and splines computed
 
- pspini: atom type   2  psp file is /workspace/jiahaoz/PACKAGE_INSTALL/abinit-9.4.1/pbe_s_sr/O.psp8
- pspatm: opening atomic psp file    /workspace/jiahaoz/PACKAGE_INSTALL/abinit-9.4.1/pbe_s_sr/O.psp8
- O     ONCVPSP  r_core=  1.36  1.46  1.26
-  8.00000   6.00000    151103                znucl, zion, pspdat
    8   11    2    4       600   0.00000      pspcod,pspxc,lmax,lloc,mmax,r2well
    5.99000000000000    4.00000000000000    0.00000000000000   rchrg,fchrg,qchrg
     nproj     2     2     1
     extension_switch     1
  pspatm : epsatm=    6.19401560
         --- l  ekb(1:nproj) -->
             0    5.257212    0.704241
             1   -5.135443   -1.451781
             2   -4.371486
 pspatm: atomic psp has been read  and splines computed
 
   1.31998181E+04                                ecore*ucvol(ha*bohr**3)
--------------------------------------------------------------------------------
 
_setup2: Arith. and geom. avg. npw (full set) are    5268.875    5268.869
 
================================================================================

--- !BeginCycle
iteration_state: {dtset: 1, }
solver: {iscf: 7, nstep: 100, nline: 4, wfoptalg: 0, }
tolerances: {tolvrs: 1.00E-18, }
...
 
     iter   Etot(hartree)      deltaE(h)  residm     vres2
 ETOT  1  -357.57656660445    -3.576E+02 3.058E-01 1.317E+03
 ETOT  2  -357.50587826077     7.069E-02 2.068E-02 1.603E+03
 ETOT  3  -358.61505602223    -1.109E+00 6.461E-03 4.270E+01
 ETOT  4  -358.63925318192    -2.420E-02 4.230E-03 6.208E-01
 ETOT  5  -358.63944315127    -1.900E-04 1.715E-03 4.612E-01
 ETOT  6  -358.63960027804    -1.571E-04 2.863E-03 3.392E-03
 ETOT  7  -358.63960233053    -2.052E-06 1.500E-03 4.278E-04
 ETOT  8  -358.63960249673    -1.662E-07 1.706E-03 8.469E-05
 ETOT  9  -358.63960253180    -3.508E-08 7.193E-04 8.196E-06
 ETOT 10  -358.63960253542    -3.617E-09 9.760E-04 1.671E-07
 ETOT 11  -358.63960253546    -3.593E-11 4.693E-04 7.844E-08
 ETOT 12  -358.63960253548    -2.575E-11 5.751E-04 8.828E-09
 ETOT 13  -358.63960253549    -4.775E-12 2.401E-04 1.633E-10
 ETOT 14  -358.63960253549    -6.821E-13 4.014E-04 9.822E-11
 ETOT 15  -358.63960253549    -2.842E-13 2.411E-04 6.907E-12
 ETOT 16  -358.63960253549     1.705E-12 3.654E-04 4.998E-13
 ETOT 17  -358.63960253549    -3.979E-13 2.476E-04 4.250E-14
 ETOT 18  -358.63960253549    -2.842E-13 4.525E-04 8.576E-15
 ETOT 19  -358.63960253549    -5.684E-13 3.021E-04 1.233E-15
 ETOT 20  -358.63960253549    -2.274E-13 4.789E-04 1.186E-16
 ETOT 21  -358.63960253549     2.842E-13 2.878E-04 2.529E-17
 ETOT 22  -358.63960253549     1.137E-13 3.987E-04 3.396E-18
 ETOT 23  -358.63960253549    -1.137E-13 2.189E-04 3.580E-19
 
 At SCF step   23       vres2   =  3.58E-19 < tolvrs=  1.00E-18 =>converged.
 
 Cartesian components of stress tensor (hartree/bohr^3)
  sigma(1 1)= -2.14183569E-04  sigma(3 2)= -1.59490337E-07
  sigma(2 2)= -2.51781836E-04  sigma(3 1)=  5.18450192E-08
  sigma(3 3)= -5.79292281E-04  sigma(2 1)=  4.32747511E-08
 

--- !ResultsGS
iteration_state: {dtset: 1, }
comment   : Summary of ground state results
lattice_vectors:
- [  9.5914335,   0.0000000,   0.0000000, ]
- [  0.0000000,   9.5914335,   0.0000000, ]
- [  0.0000000,   0.0000000,   9.5914335, ]
lattice_lengths: [   9.59143,    9.59143,    9.59143, ]
lattice_angles: [ 90.000,  90.000,  90.000, ] # degrees, (23, 13, 12)
lattice_volume:   8.8236964E+02
convergence: {deltae: -1.137E-13, res2:  3.580E-19, residm:  2.189E-04, diffor: null, }
etotal    :  -3.58639603E+02
entropy   :   0.00000000E+00
fermie    :   2.79639910E-01
cartesian_stress_tensor: # hartree/bohr^3
- [ -2.14183569E-04,   4.32747511E-08,   5.18450192E-08, ]
- [  4.32747511E-08,  -2.51781836E-04,  -1.59490337E-07, ]
- [  5.18450192E-08,  -1.59490337E-07,  -5.79292281E-04, ]
pressure_GPa:   1.0251E+01
xred      :
- [  0.0000E+00,   0.0000E+00,   1.0000E-08, Hf]
- [  2.1320E-05,   5.0000E-01,   4.3967E-01, Hf]
- [  4.6845E-01,   8.0800E-06,   5.0000E-01, Hf]
- [  4.6842E-01,   5.0000E-01,  -6.0318E-02, Hf]
- [  1.9567E-01,   2.5056E-01,   7.0455E-01,  O]
- [  1.9561E-01,   7.5069E-01,   7.3512E-01,  O]
- [  2.7291E-01,   7.5064E-01,   2.3516E-01,  O]
- [  2.7282E-01,   2.5053E-01,   2.0457E-01,  O]
- [  8.0303E-01,   1.4881E-01,   3.3608E-01,  O]
- [  8.0313E-01,   6.4867E-01,   1.0351E-01,  O]
- [  6.6540E-01,   6.4865E-01,   6.0352E-01,  O]
- [  6.6545E-01,   1.4876E-01,   8.3612E-01,  O]
cartesian_forces: # hartree/bohr
- [ -2.28727944E-04,   5.15182865E-03,   6.32517768E-05, ]
- [ -2.02531089E-04,   5.11762933E-03,  -1.29263764E-05, ]
- [  2.82212686E-04,   5.15296575E-03,   5.78224621E-05, ]
- [  2.62212080E-04,   5.13241226E-03,  -3.07661598E-05, ]
- [  1.22728633E-04,  -2.40407896E-03,   2.87234210E-04, ]
- [  2.11226031E-04,  -2.74051658E-03,  -3.00362202E-04, ]
- [ -1.83050966E-04,  -2.71063323E-03,  -3.87167597E-04, ]
- [ -9.81316414E-05,  -2.42286878E-03,   2.60184226E-04, ]
- [ -7.10882165E-04,  -2.47564167E-03,  -3.79193708E-04, ]
- [ -7.18127135E-04,  -2.69637136E-03,   3.85887200E-04, ]
- [  6.13540056E-04,  -2.65680831E-03,   3.45127514E-04, ]
- [  6.49531455E-04,  -2.44791710E-03,  -2.89091345E-04, ]
force_length_stats: {min:   2.42428576E-03, max:   5.16101187E-03, mean:   3.47245002E-03, }
...

 Integrated electronic density in atomic spheres:
 ------------------------------------------------
 Atom  Sphere_radius  Integrated_density
    1        2.00000          8.31515465
    2        2.00000          8.32225021
    3        2.00000          8.33480806
    4        2.00000          8.32868169
    5        2.00000          6.38506787
    6        2.00000          6.38869000
    7        2.00000          6.37976675
    8        2.00000          6.38365802
    9        2.00000          6.36601594
   10        2.00000          6.36595267
   11        2.00000          6.36834778
   12        2.00000          6.36195340
================================================================================
 
 ----iterations are completed or convergence reached----
 
 Mean square residual over all n,k,spin=   15.263E-08; max=  21.887E-05
 reduced coordinates (array xred) for   12 atoms
       0.000000000000      0.000000000000      0.000000010000
       0.000021320000      0.500002260000      0.439665320000
       0.468452240000      0.000008080000      0.500004960000
       0.468421960000      0.499999950000     -0.060318120000
       0.195674730000      0.250561270000      0.704553320000
       0.195606830000      0.750693760000      0.735122020000
       0.272909150000      0.750644830000      0.235162620000
       0.272824440000      0.250533850000      0.204568380000
       0.803028050000      0.148805130000      0.336080810000
       0.803133090000      0.648672640000      0.103509450000
       0.665403220000      0.648649390000      0.603524500000
       0.665450800000      0.148760380000      0.836121400000
 rms dE/dt=  2.0324E-02; max dE/dt=  2.6288E-02; dE/dt below (all hartree)
    1       0.002153862362     -0.049411226396     -0.000605477362
    2       0.001902596978     -0.049083205933      0.000125180327
    3      -0.002746790701     -0.049422132869     -0.000553402452
    4      -0.002554956219     -0.049224995452      0.000296289423
    5      -0.001217110013      0.023060758884     -0.002753789969
    6      -0.002065926924      0.026287677967      0.002882101934
    7       0.001715754670      0.026001053739      0.003714690101
    8       0.000901256616      0.023240980211     -0.002494341849
    9       0.006778412512      0.023747147846      0.003638209075
   10       0.006847902159      0.025864262009     -0.003700013565
   11      -0.005924695137      0.025484795576     -0.003309069751
   12      -0.006269904248      0.023481229500      0.002773998260
 
 cartesian coordinates (angstrom) at end:
    1      0.00000000000000     0.00000000000000     0.00000005075568
    2      0.00010821110976     2.53779547078368     2.23155122890176
    3      2.37766119887232     0.00004101058944     2.53780917481728
    4      2.37750751067328     2.53778374622160    -0.30614871969216
    5      0.99316039799664     1.27174076405136     3.57600828528576
    6      0.99281576692944     3.81019722605568     3.73116180080736
    7      1.38516894864720     3.80994887851344     1.19358386886816
    8      1.38473899728192     1.27160159197680     1.03830072333984
    9      4.07582347368240     0.75527055606384     1.70580100465008
   10      4.07635661134512     3.29238209405952     0.52536925211760
   11      3.37729929052896     3.29226408710352     3.06322963941600
   12      3.37754078605440     0.75504342439584     4.24379102195520
 
 cartesian forces (hartree/bohr) at end:
    1     -0.00022872794353     0.00515182864759     0.00006325177676
    2     -0.00020253108938     0.00511762933187    -0.00001292637638
    3      0.00028221268582     0.00515296575326     0.00005782246211
    4      0.00026221207979     0.00513241226481    -0.00003076615981
    5      0.00012272863272    -0.00240407896139     0.00028723420952
    6      0.00021122603111    -0.00274051658431    -0.00030036220234
    7     -0.00018305096596    -0.00271063322765    -0.00038716759671
    8     -0.00009813164142    -0.00242286878336     0.00026018422578
    9     -0.00071088216538    -0.00247564167029    -0.00037919370780
   10     -0.00071812713525    -0.00269637136261     0.00038588719998
   11      0.00061354005617    -0.00265680830525     0.00034512751433
   12      0.00064953145531    -0.00244791710266    -0.00028909134545
 frms,max,avg= 2.1189769E-03 5.1529658E-03   4.167E-06 -2.289E-07 -1.249E-07 h/b
 
 cartesian forces (eV/Angstrom) at end:
    1     -0.01176166276613     0.26491765827189     0.00325253686149
    2     -0.01041456647644     0.26315905889764    -0.00066470094321
    3      0.01451195856408     0.26497613059144     0.00297335030075
    4      0.01348348613695     0.26391922780947    -0.00158205941377
    5      0.00631095950698    -0.12362270027193     0.01477017567280
    6      0.01086167831960    -0.14092301697772    -0.01544524414931
    7     -0.00941285833883    -0.13938635312311    -0.01990895662387
    8     -0.00504613146632    -0.12458891168439     0.01337920969988
    9     -0.03655502763042    -0.12730260241091    -0.01949892280448
   10     -0.03692757892899    -0.13865297859786     0.01984311598228
   11      0.03154949553921    -0.13661856456240     0.01774716885138
   12      0.03340024754032    -0.12587694794212    -0.01486567343392
 frms,max,avg= 1.0896216E-01 2.6497613E-01   2.143E-04 -1.177E-05 -6.422E-06 e/A
 length scales=  9.591433488838  9.591433488838  9.591433488838 bohr
              =  5.075568000000  5.075568000000  5.075568000000 angstroms
 prteigrs : about to open file o_EIG
 Fermi (or HOMO) energy (hartree) =   0.27964   Average Vxc (hartree)=  -0.44603
 Eigenvalues (hartree) for nkpt= 112  k points:
 kpt#   1, nband= 50, wtk=  0.00463, kpt=  0.0000  0.0000  0.0000 (reduced coord)
  -1.94334   -1.94261   -1.94252   -1.94250   -0.80684   -0.80604   -0.80600   -0.79574
  -0.79305   -0.79296   -0.79292   -0.79291   -0.79199   -0.78788   -0.78776   -0.78734
  -0.39865   -0.34415   -0.34253   -0.33631   -0.31810   -0.31168   -0.31042   -0.30823
   0.06705    0.06905    0.07511    0.09877    0.10669    0.10751    0.15940    0.15953
   0.16015    0.16250    0.17629    0.19109    0.19500    0.20343    0.21189    0.21539
   0.22832    0.23286    0.23422    0.23718    0.24671    0.26544    0.27962    0.27964
   0.45655    0.46439
 prteigrs : prtvol=0 or 1, do not print more k-points.
 

--- !EnergyTerms
iteration_state     : {dtset: 1, }
comment             : Components of total free energy in Hartree
kinetic             :  1.46342531449106E+02
hartree             :  5.64156644749124E+01
xc                  : -9.09383692000103E+01
Ewald energy        : -2.69426733795351E+02
psp_core            :  1.49595106529080E+01
local_psp           : -2.06862637454359E+02
non_local_psp       : -9.12956866269421E+00
total_energy        : -3.58639602535488E+02
total_energy_eV     : -9.75907989199100E+03
band_energy         : -3.13486443303404E+01
...

 
 Cartesian components of stress tensor (hartree/bohr^3)
  sigma(1 1)= -2.14183569E-04  sigma(3 2)= -1.59490337E-07
  sigma(2 2)= -2.51781836E-04  sigma(3 1)=  5.18450192E-08
  sigma(3 3)= -5.79292281E-04  sigma(2 1)=  4.32747511E-08
 
-Cartesian components of stress tensor (GPa)         [Pressure=  1.0251E+01 GPa]
- sigma(1 1)= -6.30149709E+00  sigma(3 2)= -4.69236693E-03
- sigma(2 2)= -7.40767610E+00  sigma(3 1)=  1.52533287E-03
- sigma(3 3)= -1.70433644E+01  sigma(2 1)=  1.27318692E-03
 
== END DATASET(S) ==============================================================
================================================================================
  
 -outvars: echo values of variables after computation  --------
            acell      9.5914334888E+00  9.5914334888E+00  9.5914334888E+00 Bohr
              amu      1.78490000E+02  1.59994000E+01
          chkprim           0
             ecut      2.50000000E+01 Hartree
           ecutsm      5.00000000E-01 Hartree
           etotal     -3.5863960254E+02
            fcart     -2.2872794353E-04  5.1518286476E-03  6.3251776758E-05
                      -2.0253108938E-04  5.1176293319E-03 -1.2926376383E-05
                       2.8221268582E-04  5.1529657533E-03  5.7822462114E-05
                       2.6221207979E-04  5.1324122648E-03 -3.0766159807E-05
                       1.2272863272E-04 -2.4040789614E-03  2.8723420952E-04
                       2.1122603111E-04 -2.7405165843E-03 -3.0036220234E-04
                      -1.8305096596E-04 -2.7106332276E-03 -3.8716759671E-04
                      -9.8131641421E-05 -2.4228687834E-03  2.6018422578E-04
                      -7.1088216538E-04 -2.4756416703E-03 -3.7919370780E-04
                      -7.1812713525E-04 -2.6963713626E-03  3.8588719998E-04
                       6.1354005617E-04 -2.6568083053E-03  3.4512751433E-04
                       6.4953145531E-04 -2.4479171027E-03 -2.8909134545E-04
-          fftalg         512
           istwfk        2    0    0    3    0    0    0    0    0    0
                         0    0    0    0    0    0    6    0    0    7
                         0    0    0    0    0    0    0    0    0    0
                         0    0    0    0    0    0    0    0    0    0
                         0    0    0    0    0    0    0    0    0    0
                       outvar_i_n : Printing only first  50 k-points.
              ixc          11
              kpt      0.00000000E+00  0.00000000E+00  0.00000000E+00
                       1.66666667E-01  0.00000000E+00  0.00000000E+00
                       3.33333333E-01  0.00000000E+00  0.00000000E+00
                       5.00000000E-01  0.00000000E+00  0.00000000E+00
                       0.00000000E+00  1.66666667E-01  0.00000000E+00
                       1.66666667E-01  1.66666667E-01  0.00000000E+00
                       3.33333333E-01  1.66666667E-01  0.00000000E+00
                       5.00000000E-01  1.66666667E-01  0.00000000E+00
                      -3.33333333E-01  1.66666667E-01  0.00000000E+00
                      -1.66666667E-01  1.66666667E-01  0.00000000E+00
                       0.00000000E+00  3.33333333E-01  0.00000000E+00
                       1.66666667E-01  3.33333333E-01  0.00000000E+00
                       3.33333333E-01  3.33333333E-01  0.00000000E+00
                       5.00000000E-01  3.33333333E-01  0.00000000E+00
                      -3.33333333E-01  3.33333333E-01  0.00000000E+00
                      -1.66666667E-01  3.33333333E-01  0.00000000E+00
                       0.00000000E+00  5.00000000E-01  0.00000000E+00
                       1.66666667E-01  5.00000000E-01  0.00000000E+00
                       3.33333333E-01  5.00000000E-01  0.00000000E+00
                       5.00000000E-01  5.00000000E-01  0.00000000E+00
                       0.00000000E+00  0.00000000E+00  1.66666667E-01
                       1.66666667E-01  0.00000000E+00  1.66666667E-01
                       3.33333333E-01  0.00000000E+00  1.66666667E-01
                       5.00000000E-01  0.00000000E+00  1.66666667E-01
                      -3.33333333E-01  0.00000000E+00  1.66666667E-01
                      -1.66666667E-01  0.00000000E+00  1.66666667E-01
                       0.00000000E+00  1.66666667E-01  1.66666667E-01
                       1.66666667E-01  1.66666667E-01  1.66666667E-01
                       3.33333333E-01  1.66666667E-01  1.66666667E-01
                       5.00000000E-01  1.66666667E-01  1.66666667E-01
                      -3.33333333E-01  1.66666667E-01  1.66666667E-01
                      -1.66666667E-01  1.66666667E-01  1.66666667E-01
                       0.00000000E+00  3.33333333E-01  1.66666667E-01
                       1.66666667E-01  3.33333333E-01  1.66666667E-01
                       3.33333333E-01  3.33333333E-01  1.66666667E-01
                       5.00000000E-01  3.33333333E-01  1.66666667E-01
                      -3.33333333E-01  3.33333333E-01  1.66666667E-01
                      -1.66666667E-01  3.33333333E-01  1.66666667E-01
                       0.00000000E+00  5.00000000E-01  1.66666667E-01
                       1.66666667E-01  5.00000000E-01  1.66666667E-01
                       3.33333333E-01  5.00000000E-01  1.66666667E-01
                       5.00000000E-01  5.00000000E-01  1.66666667E-01
                      -3.33333333E-01  5.00000000E-01  1.66666667E-01
                      -1.66666667E-01  5.00000000E-01  1.66666667E-01
                       0.00000000E+00 -3.33333333E-01  1.66666667E-01
                       1.66666667E-01 -3.33333333E-01  1.66666667E-01
                       3.33333333E-01 -3.33333333E-01  1.66666667E-01
                       5.00000000E-01 -3.33333333E-01  1.66666667E-01
                      -3.33333333E-01 -3.33333333E-01  1.66666667E-01
                      -1.66666667E-01 -3.33333333E-01  1.66666667E-01
                       outvar_i_n : Printing only first  50 k-points.
           kptopt           2
         kptrlatt        6    0    0      0    6    0      0    0    6
          kptrlen      5.75486009E+01
P           mkmem           4
            natom          12
            nband          50
            ngfft          45      45      45
             nkpt         112
            nstep         100
             nsym           1
           ntypat           2
              occ      2.000000  2.000000  2.000000  2.000000  2.000000  2.000000
                       2.000000  2.000000  2.000000  2.000000  2.000000  2.000000
                       2.000000  2.000000  2.000000  2.000000  2.000000  2.000000
                       2.000000  2.000000  2.000000  2.000000  2.000000  2.000000
                       2.000000  2.000000  2.000000  2.000000  2.000000  2.000000
                       2.000000  2.000000  2.000000  2.000000  2.000000  2.000000
                       2.000000  2.000000  2.000000  2.000000  2.000000  2.000000
                       2.000000  2.000000  2.000000  2.000000  2.000000  2.000000
                       0.000000  0.000000
        pawecutdg      2.50000000E+01 Hartree
         pawxcdev           0
          spgroup           1
           strten     -2.1418356886E-04 -2.5178183552E-04 -5.7929228073E-04
                      -1.5949033710E-07  5.1845019182E-08  4.3274751092E-08
        symmorphi           0
           tolmxf      1.00000000E-05
           tolvrs      1.00000000E-18
           tsmear      4.00000000E-02 Hartree
            typat      1  1  1  1  2  2  2  2  2  2  2  2
              wtk        0.00463    0.00926    0.00926    0.00463    0.00926    0.00926
                         0.00926    0.00926    0.00926    0.00926    0.00926    0.00926
                         0.00926    0.00926    0.00926    0.00926    0.00463    0.00926
                         0.00926    0.00463    0.00926    0.00926    0.00926    0.00926
                         0.00926    0.00926    0.00926    0.00926    0.00926    0.00926
                         0.00926    0.00926    0.00926    0.00926    0.00926    0.00926
                         0.00926    0.00926    0.00926    0.00926    0.00926    0.00926
                         0.00926    0.00926    0.00926    0.00926    0.00926    0.00926
                         0.00926    0.00926
                       outvars : Printing only first  50 k-points.
           xangst      0.0000000000E+00  0.0000000000E+00  5.0755680000E-08
                       1.0821110976E-04  2.5377954708E+00  2.2315512289E+00
                       2.3776611989E+00  4.1010589440E-05  2.5378091748E+00
                       2.3775075107E+00  2.5377837462E+00 -3.0614871969E-01
                       9.9316039800E-01  1.2717407641E+00  3.5760082853E+00
                       9.9281576693E-01  3.8101972261E+00  3.7311618008E+00
                       1.3851689486E+00  3.8099488785E+00  1.1935838689E+00
                       1.3847389973E+00  1.2716015920E+00  1.0383007233E+00
                       4.0758234737E+00  7.5527055606E-01  1.7058010047E+00
                       4.0763566113E+00  3.2923820941E+00  5.2536925212E-01
                       3.3772992905E+00  3.2922640871E+00  3.0632296394E+00
                       3.3775407861E+00  7.5504342440E-01  4.2437910220E+00
            xcart      0.0000000000E+00  0.0000000000E+00  9.5914334888E-08
                       2.0448936198E-04  4.7957384211E+00  4.2170206741E+00
                       4.4931285027E+00  7.7498782590E-05  4.7957643179E+00
                       4.4928380741E+00  4.7957162648E+00 -5.7853723615E-01
                       1.8768011582E+00  2.4032417561E+00  6.7576763081E+00
                       1.8761498999E+00  7.2002292695E+00  7.0508739610E+00
                       2.6175899607E+00  7.1997599607E+00  2.2555466288E+00
                       2.6167774704E+00  2.4029787590E+00  1.9621040107E+00
                       7.7021901312E+00  1.4272545072E+00  3.2234967360E+00
                       7.7031976154E+00  6.2217004826E+00  9.9280400514E-01
                       6.3821707279E+00  6.2214774818E+00  5.7886651006E+00
                       6.3826270883E+00  1.4268252905E+00  8.0196027967E+00
             xred      0.0000000000E+00  0.0000000000E+00  1.0000000000E-08
                       2.1320000000E-05  5.0000226000E-01  4.3966532000E-01
                       4.6845224000E-01  8.0800000000E-06  5.0000496000E-01
                       4.6842196000E-01  4.9999995000E-01 -6.0318120000E-02
                       1.9567473000E-01  2.5056127000E-01  7.0455332000E-01
                       1.9560683000E-01  7.5069376000E-01  7.3512202000E-01
                       2.7290915000E-01  7.5064483000E-01  2.3516262000E-01
                       2.7282444000E-01  2.5053385000E-01  2.0456838000E-01
                       8.0302805000E-01  1.4880513000E-01  3.3608081000E-01
                       8.0313309000E-01  6.4867264000E-01  1.0350945000E-01
                       6.6540322000E-01  6.4864939000E-01  6.0352450000E-01
                       6.6545080000E-01  1.4876038000E-01  8.3612140000E-01
            znucl       72.00000    8.00000
 
================================================================================


- Timing analysis has been suppressed with timopt=0



================================================================================

 Suggested references for the acknowledgment of ABINIT usage.

 The users of ABINIT have little formal obligations with respect to the ABINIT group
 (those specified in the GNU General Public License, http://www.gnu.org/copyleft/gpl.txt).
 However, it is common practice in the scientific literature,
 to acknowledge the efforts of people that have made the research possible.
 In this spirit, please find below suggested citations of work written by ABINIT developers,
 corresponding to implementations inside of ABINIT that you have used in the present run.
 Note also that it will be of great value to readers of publications presenting these results,
 to read papers enabling them to understand the theoretical formalism and details
 of the ABINIT implementation.
 For information on why they are suggested, see also https://docs.abinit.org/theory/acknowledgments.
-
- [1] Specification of an extensible and portable file format for electronic structure and crystallographic data
- X. Gonze, C.-O. Almbladh, A. Cucca, D. Caliste, C. Freysoldt, M. Marques, V. Olevano, Y. Pouillon, M.J. Verstraete,
- Comput. Material Science 43, 1056 (2008).
- Comment: to be cited in case the ETSF_IO file format is used, i.e. iomode=3.
- DOI and bibtex: see https://docs.abinit.org/theory/bibliography/#gonze2008
-
- [2] The Abinit project: Impact, environment and recent developments.
- Computer Phys. Comm. 248, 107042 (2020).
- X.Gonze, B. Amadon, G. Antonius, F.Arnardi, L.Baguet, J.-M.Beuken,
- J.Bieder, F.Bottin, J.Bouchet, E.Bousquet, N.Brouwer, F.Bruneval,
- G.Brunin, T.Cavignac, J.-B. Charraud, Wei Chen, M.Cote, S.Cottenier,
- J.Denier, G.Geneste, Ph.Ghosez, M.Giantomassi, Y.Gillet, O.Gingras,
- D.R.Hamann, G.Hautier, Xu He, N.Helbig, N.Holzwarth, Y.Jia, F.Jollet,
- W.Lafargue-Dit-Hauret, K.Lejaeghere, M.A.L.Marques, A.Martin, C.Martins,
- H.P.C. Miranda, F.Naccarato, K. Persson, G.Petretto, V.Planes, Y.Pouillon,
- S.Prokhorenko, F.Ricci, G.-M.Rignanese, A.H.Romero, M.M.Schmitt, M.Torrent,
- M.J.van Setten, B.Van Troeye, M.J.Verstraete, G.Zerah and J.W.Zwanzig
- Comment: the fifth generic paper describing the ABINIT project.
- Note that a version of this paper, that is not formatted for Computer Phys. Comm. 
- is available at https://www.abinit.org/sites/default/files/ABINIT20.pdf .
- The licence allows the authors to put it on the Web.
- DOI and bibtex: see https://docs.abinit.org/theory/bibliography/#gonze2020
-
- [3] Optimized norm-conserving Vanderbilt pseudopotentials.
- D.R. Hamann, Phys. Rev. B 88, 085117 (2013).
- Comment: Some pseudopotential generated using the ONCVPSP code were used.
- DOI and bibtex: see https://docs.abinit.org/theory/bibliography/#hamann2013
-
- [4] ABINIT: Overview, and focus on selected capabilities
- J. Chem. Phys. 152, 124102 (2020).
- A. Romero, D.C. Allan, B. Amadon, G. Antonius, T. Applencourt, L.Baguet,
- J.Bieder, F.Bottin, J.Bouchet, E.Bousquet, F.Bruneval,
- G.Brunin, D.Caliste, M.Cote,
- J.Denier, C. Dreyer, Ph.Ghosez, M.Giantomassi, Y.Gillet, O.Gingras,
- D.R.Hamann, G.Hautier, F.Jollet, G. Jomard,
- A.Martin, 
- H.P.C. Miranda, F.Naccarato, G.Petretto, N.A. Pike, V.Planes,
- S.Prokhorenko, T. Rangel, F.Ricci, G.-M.Rignanese, M.Royo, M.Stengel, M.Torrent,
- M.J.van Setten, B.Van Troeye, M.J.Verstraete, J.Wiktor, J.W.Zwanziger, and X.Gonze.
- Comment: a global overview of ABINIT, with focus on selected capabilities .
- Note that a version of this paper, that is not formatted for J. Chem. Phys 
- is available at https://www.abinit.org/sites/default/files/ABINIT20_JPC.pdf .
- The licence allows the authors to put it on the Web.
- DOI and bibtex: see https://docs.abinit.org/theory/bibliography/#romero2020
-
- [5] Recent developments in the ABINIT software package.
- Computer Phys. Comm. 205, 106 (2016).
- X.Gonze, F.Jollet, F.Abreu Araujo, D.Adams, B.Amadon, T.Applencourt,
- C.Audouze, J.-M.Beuken, J.Bieder, A.Bokhanchuk, E.Bousquet, F.Bruneval
- D.Caliste, M.Cote, F.Dahm, F.Da Pieve, M.Delaveau, M.Di Gennaro,
- B.Dorado, C.Espejo, G.Geneste, L.Genovese, A.Gerossier, M.Giantomassi,
- Y.Gillet, D.R.Hamann, L.He, G.Jomard, J.Laflamme Janssen, S.Le Roux,
- A.Levitt, A.Lherbier, F.Liu, I.Lukacevic, A.Martin, C.Martins,
- M.J.T.Oliveira, S.Ponce, Y.Pouillon, T.Rangel, G.-M.Rignanese,
- A.H.Romero, B.Rousseau, O.Rubel, A.A.Shukri, M.Stankovski, M.Torrent,
- M.J.Van Setten, B.Van Troeye, M.J.Verstraete, D.Waroquier, J.Wiktor,
- B.Xu, A.Zhou, J.W.Zwanziger.
- Comment: the fourth generic paper describing the ABINIT project.
- Note that a version of this paper, that is not formatted for Computer Phys. Comm. 
- is available at https://www.abinit.org/sites/default/files/ABINIT16.pdf .
- The licence allows the authors to put it on the Web.
- DOI and bibtex: see https://docs.abinit.org/theory/bibliography/#gonze2016
-
- Proc.   0 individual time (sec): cpu=        126.5  wall=        130.0
 
================================================================================
 
 Calculation completed.
.Delivered   0 WARNINGs and   0 COMMENTs to log file.
+Overall time at end (sec) : cpu=       4614.9  wall=       4677.4
