
.Version 9.4.1 of ABINIT 
.(MPI version, prepared for a x86_64_linux_intel19.0 computer) 

.Copyright (C) 1998-2021 ABINIT group . 
 ABINIT comes with ABSOLUTELY NO WARRANTY.
 It is free software, and you are welcome to redistribute it
 under certain conditions (GNU General Public License,
 see ~abinit/COPYING or http://www.gnu.org/copyleft/gpl.txt).

 ABINIT is a project of the Universite Catholique de Louvain,
 Corning Inc. and other collaborators, see ~abinit/doc/developers/contributors.txt .
 Please read https://docs.abinit.org/theory/acknowledgments for suggested
 acknowledgments of the ABINIT effort.
 For more information, see https://www.abinit.org .

.Starting date : Sat  3 Jul 2021.
- ( at 08h25 )
  
- input  file    -> PATH15
- output file    -> PATH15.abo
- root for input  files -> i
- root for output files -> o
 
 
 Symmetries : space group P1 (#  1); Bravais aP (primitive triclinic)
================================================================================
 Values of the parameters that define the memory need of the present run
     intxc =       0    ionmov =       0      iscf =       7    lmnmax =       8
     lnmax =       8     mgfft =      45  mpssoang =       4    mqgrid =    3001
     natom =      12  nloc_mem =       1    nspden =       1   nspinor =       1
    nsppol =       1      nsym =       1    n1xccc =    2501    ntypat =       2
    occopt =       1   xclevel =       2
-    mband =          50        mffmem =           1         mkmem =           4
       mpw =        5280          nfft =       91125          nkpt =         112
================================================================================
P This job should need less than                      45.554 Mbytes of memory.
  Rough estimation (10% accuracy) of disk space for files :
_ WF disk file :    451.174 Mbytes ; DEN or POT disk file :      0.697 Mbytes.
================================================================================
 
--------------------------------------------------------------------------------
------------- Echo of variables that govern the present computation ------------
--------------------------------------------------------------------------------
-
- outvars: echo of selected default values                                      
-   iomode0 =  3 , fftalg0 =512 , wfoptalg0 =  0
-
- outvars: echo of global parameters not present in the input file              
-  max_nthreads =    0
-
 -outvars: echo values of preprocessed input variables --------
            acell      9.5914334888E+00  9.5914334888E+00  9.5914334888E+00 Bohr
              amu      1.78490000E+02  1.59994000E+01
          chkprim           0
             ecut      2.50000000E+01 Hartree
           ecutsm      5.00000000E-01 Hartree
-          fftalg         512
           istwfk        2    0    0    3    0    0    0    0    0    0
                         0    0    0    0    0    0    6    0    0    7
                         0    0    0    0    0    0    0    0    0    0
                         0    0    0    0    0    0    0    0    0    0
                         0    0    0    0    0    0    0    0    0    0
                       outvar_i_n : Printing only first  50 k-points.
              ixc          11
              kpt      0.00000000E+00  0.00000000E+00  0.00000000E+00
                       1.66666667E-01  0.00000000E+00  0.00000000E+00
                       3.33333333E-01  0.00000000E+00  0.00000000E+00
                       5.00000000E-01  0.00000000E+00  0.00000000E+00
                       0.00000000E+00  1.66666667E-01  0.00000000E+00
                       1.66666667E-01  1.66666667E-01  0.00000000E+00
                       3.33333333E-01  1.66666667E-01  0.00000000E+00
                       5.00000000E-01  1.66666667E-01  0.00000000E+00
                      -3.33333333E-01  1.66666667E-01  0.00000000E+00
                      -1.66666667E-01  1.66666667E-01  0.00000000E+00
                       0.00000000E+00  3.33333333E-01  0.00000000E+00
                       1.66666667E-01  3.33333333E-01  0.00000000E+00
                       3.33333333E-01  3.33333333E-01  0.00000000E+00
                       5.00000000E-01  3.33333333E-01  0.00000000E+00
                      -3.33333333E-01  3.33333333E-01  0.00000000E+00
                      -1.66666667E-01  3.33333333E-01  0.00000000E+00
                       0.00000000E+00  5.00000000E-01  0.00000000E+00
                       1.66666667E-01  5.00000000E-01  0.00000000E+00
                       3.33333333E-01  5.00000000E-01  0.00000000E+00
                       5.00000000E-01  5.00000000E-01  0.00000000E+00
                       0.00000000E+00  0.00000000E+00  1.66666667E-01
                       1.66666667E-01  0.00000000E+00  1.66666667E-01
                       3.33333333E-01  0.00000000E+00  1.66666667E-01
                       5.00000000E-01  0.00000000E+00  1.66666667E-01
                      -3.33333333E-01  0.00000000E+00  1.66666667E-01
                      -1.66666667E-01  0.00000000E+00  1.66666667E-01
                       0.00000000E+00  1.66666667E-01  1.66666667E-01
                       1.66666667E-01  1.66666667E-01  1.66666667E-01
                       3.33333333E-01  1.66666667E-01  1.66666667E-01
                       5.00000000E-01  1.66666667E-01  1.66666667E-01
                      -3.33333333E-01  1.66666667E-01  1.66666667E-01
                      -1.66666667E-01  1.66666667E-01  1.66666667E-01
                       0.00000000E+00  3.33333333E-01  1.66666667E-01
                       1.66666667E-01  3.33333333E-01  1.66666667E-01
                       3.33333333E-01  3.33333333E-01  1.66666667E-01
                       5.00000000E-01  3.33333333E-01  1.66666667E-01
                      -3.33333333E-01  3.33333333E-01  1.66666667E-01
                      -1.66666667E-01  3.33333333E-01  1.66666667E-01
                       0.00000000E+00  5.00000000E-01  1.66666667E-01
                       1.66666667E-01  5.00000000E-01  1.66666667E-01
                       3.33333333E-01  5.00000000E-01  1.66666667E-01
                       5.00000000E-01  5.00000000E-01  1.66666667E-01
                      -3.33333333E-01  5.00000000E-01  1.66666667E-01
                      -1.66666667E-01  5.00000000E-01  1.66666667E-01
                       0.00000000E+00 -3.33333333E-01  1.66666667E-01
                       1.66666667E-01 -3.33333333E-01  1.66666667E-01
                       3.33333333E-01 -3.33333333E-01  1.66666667E-01
                       5.00000000E-01 -3.33333333E-01  1.66666667E-01
                      -3.33333333E-01 -3.33333333E-01  1.66666667E-01
                      -1.66666667E-01 -3.33333333E-01  1.66666667E-01
                       outvar_i_n : Printing only first  50 k-points.
           kptopt           2
         kptrlatt        6    0    0      0    6    0      0    0    6
          kptrlen      5.75486009E+01
P           mkmem           4
            natom          12
            nband          50
            ngfft          45      45      45
             nkpt         112
            nstep         100
             nsym           1
           ntypat           2
              occ      2.000000  2.000000  2.000000  2.000000  2.000000  2.000000
                       2.000000  2.000000  2.000000  2.000000  2.000000  2.000000
                       2.000000  2.000000  2.000000  2.000000  2.000000  2.000000
                       2.000000  2.000000  2.000000  2.000000  2.000000  2.000000
                       2.000000  2.000000  2.000000  2.000000  2.000000  2.000000
                       2.000000  2.000000  2.000000  2.000000  2.000000  2.000000
                       2.000000  2.000000  2.000000  2.000000  2.000000  2.000000
                       2.000000  2.000000  2.000000  2.000000  2.000000  2.000000
                       0.000000  0.000000
        pawecutdg      2.50000000E+01 Hartree
         pawxcdev           0
          spgroup           1
        symmorphi           0
           tolmxf      1.00000000E-05
           tolvrs      1.00000000E-18
           tsmear      4.00000000E-02 Hartree
            typat      1  1  1  1  2  2  2  2  2  2  2  2
              wtk        0.00463    0.00926    0.00926    0.00463    0.00926    0.00926
                         0.00926    0.00926    0.00926    0.00926    0.00926    0.00926
                         0.00926    0.00926    0.00926    0.00926    0.00463    0.00926
                         0.00926    0.00463    0.00926    0.00926    0.00926    0.00926
                         0.00926    0.00926    0.00926    0.00926    0.00926    0.00926
                         0.00926    0.00926    0.00926    0.00926    0.00926    0.00926
                         0.00926    0.00926    0.00926    0.00926    0.00926    0.00926
                         0.00926    0.00926    0.00926    0.00926    0.00926    0.00926
                         0.00926    0.00926
                       outvars : Printing only first  50 k-points.
           xangst      7.4625010435E-02  3.6899785405E-02 -4.3320480437E-03
                       7.4625467236E-02  2.5746356183E+00  2.5334914399E+00
                       2.4586891906E+00  3.6899836161E-02  2.5334223106E+00
                       2.4586888861E+00  2.5746356183E+00 -4.2628680518E-03
                       1.0954950151E+00  1.3340057005E+00  3.7395580592E+00
                       1.0948396578E+00  3.8724962704E+00  3.9153728924E+00
                       1.4641351939E+00  3.8724175991E+00  1.3774604805E+00
                       1.4636690537E+00  1.3337929327E+00  1.2015918970E+00
                       4.1439635832E+00  8.5273034391E-01  1.8606424235E+00
                       4.1443249128E+00  3.3898077233E+00  7.1801674979E-01
                       3.4901131284E+00  3.3895487679E+00  3.2556186384E+00
                       3.4908733469E+00  8.5260538342E-01  4.3982980116E+00
            xcart      1.4102083239E-01  6.9730488779E-02 -8.1863843971E-03
                       1.4102169561E-01  4.8653562105E+00  4.7876049814E+00
                       4.6462492161E+00  6.9730584693E-02  4.7874743461E+00
                       4.6462486406E+00  4.8653562105E+00 -8.0556531586E-03
                       2.0701855585E+00  2.5209054337E+00  7.0667405899E+00
                       2.0689471126E+00  7.3179574016E+00  7.3989824747E+00
                       2.7668145380E+00  7.3178087344E+00  2.6030230670E+00
                       2.7659336607E+00  2.5205033608E+00  2.2706796089E+00
                       7.8309562768E+00  1.6114268152E+00  3.5161046116E+00
                       7.8316390910E+00  6.4058082402E+00  1.3568550159E+00
                       6.5953579854E+00  6.4053188853E+00  6.1522276197E+00
                       6.5967945903E+00  1.6111906741E+00  8.3115786928E+00
             xred      1.4702790000E-02  7.2700800000E-03 -8.5351000000E-04
                       1.4702880000E-02  5.0726059000E-01  4.9915427000E-01
                       4.8441656000E-01  7.2700900000E-03  4.9914065000E-01
                       4.8441650000E-01  5.0726059000E-01 -8.3988000000E-04
                       2.1583693000E-01  2.6282885000E-01  7.3677627000E-01
                       2.1570781000E-01  7.6296806000E-01  7.7141571000E-01
                       2.8846726000E-01  7.6295256000E-01  2.7139041000E-01
                       2.8837542000E-01  2.6278693000E-01  2.3674038000E-01
                       8.1645317000E-01  1.6800688000E-01  3.6658802000E-01
                       8.1652436000E-01  6.6786766000E-01  1.4146530000E-01
                       6.8763006000E-01  6.6781664000E-01  6.4142942000E-01
                       6.8777984000E-01  1.6798226000E-01  8.6656272000E-01
            znucl       72.00000    8.00000
 
================================================================================
 
 chkinp: Checking input parameters for consistency.
 
================================================================================
== DATASET  1 ==================================================================
-   mpi_nproc: 36, omp_nthreads: -1 (-1 if OMP is not activated)
-    --> not optimal distribution: autoparal keyword recommended in input file <--
 

--- !DatasetInfo
iteration_state: {dtset: 1, }
dimensions: {natom: 12, nkpt: 112, mband: 50, nsppol: 1, nspinor: 1, nspden: 1, mpw: 5280, }
cutoff_energies: {ecut:  25.0, pawecutdg:  25.0, }
electrons: {nelect:   9.60000000E+01, charge:   0.00000000E+00, occopt:   1.00000000E+00, tsmear:   4.00000000E-02, }
meta: {optdriver: 0, ionmov: 0, optcell: 0, iscf: 7, paral_kgb: 0, }
...

 Exchange-correlation functional for the present dataset will be:
  GGA: Perdew-Burke-Ernzerhof functional - ixc=11
 Citation for XC functional:
  J.P.Perdew, K.Burke, M.Ernzerhof, PRL 77, 3865 (1996)
 
 Real(R)+Recip(G) space primitive vectors, cartesian coordinates (Bohr,Bohr^-1):
 R(1)=  9.5914335  0.0000000  0.0000000  G(1)=  0.1042597  0.0000000  0.0000000
 R(2)=  0.0000000  9.5914335  0.0000000  G(2)=  0.0000000  0.1042597  0.0000000
 R(3)=  0.0000000  0.0000000  9.5914335  G(3)=  0.0000000  0.0000000  0.1042597
 Unit cell volume ucvol=  8.8236964E+02 bohr^3
 Angles (23,13,12)=  9.00000000E+01  9.00000000E+01  9.00000000E+01 degrees
 
 getcut: wavevector=  0.0000  0.0000  0.0000  ngfft=  45  45  45
         ecut(hartree)=     25.000   => boxcut(ratio)=   2.03814
 
--- Pseudopotential description ------------------------------------------------
- pspini: atom type   1  psp file is /workspace/jiahaoz/PACKAGE_INSTALL/abinit-9.4.1/pbe_s_sr/Hf.psp8
- pspatm: opening atomic psp file    /workspace/jiahaoz/PACKAGE_INSTALL/abinit-9.4.1/pbe_s_sr/Hf.psp8
- Hf    ONCVPSP  r_core=  1.72  1.72  1.72  2.43
- 72.00000  12.00000    160625                znucl, zion, pspdat
    8   11    3    4       600   0.00000      pspcod,pspxc,lmax,lloc,mmax,r2well
    5.99000000000000    5.40000000000000    0.00000000000000   rchrg,fchrg,qchrg
     nproj     2     2     2     2
     extension_switch     1
  pspatm : epsatm=   21.98649506
         --- l  ekb(1:nproj) -->
             0    5.812335   -0.521211
             1   -3.038329    2.466565
             2    2.060039    0.471534
             3    9.947446    0.353012
 pspatm: atomic psp has been read  and splines computed
 
- pspini: atom type   2  psp file is /workspace/jiahaoz/PACKAGE_INSTALL/abinit-9.4.1/pbe_s_sr/O.psp8
- pspatm: opening atomic psp file    /workspace/jiahaoz/PACKAGE_INSTALL/abinit-9.4.1/pbe_s_sr/O.psp8
- O     ONCVPSP  r_core=  1.36  1.46  1.26
-  8.00000   6.00000    151103                znucl, zion, pspdat
    8   11    2    4       600   0.00000      pspcod,pspxc,lmax,lloc,mmax,r2well
    5.99000000000000    4.00000000000000    0.00000000000000   rchrg,fchrg,qchrg
     nproj     2     2     1
     extension_switch     1
  pspatm : epsatm=    6.19401560
         --- l  ekb(1:nproj) -->
             0    5.257212    0.704241
             1   -5.135443   -1.451781
             2   -4.371486
 pspatm: atomic psp has been read  and splines computed
 
   1.31998181E+04                                ecore*ucvol(ha*bohr**3)
--------------------------------------------------------------------------------
 
_setup2: Arith. and geom. avg. npw (full set) are    5268.875    5268.869
 
================================================================================

--- !BeginCycle
iteration_state: {dtset: 1, }
solver: {iscf: 7, nstep: 100, nline: 4, wfoptalg: 0, }
tolerances: {tolvrs: 1.00E-18, }
...
 
     iter   Etot(hartree)      deltaE(h)  residm     vres2
 ETOT  1  -357.55230373809    -3.576E+02 3.360E-01 1.330E+03
 ETOT  2  -357.45906089477     9.324E-02 3.669E-02 1.631E+03
 ETOT  3  -358.58854174279    -1.129E+00 7.925E-03 4.423E+01
 ETOT  4  -358.61188381142    -2.334E-02 8.862E-03 1.709E+00
 ETOT  5  -358.61254942042    -6.656E-04 1.590E-03 9.946E-01
 ETOT  6  -358.61285049606    -3.011E-04 4.759E-03 4.796E-03
 ETOT  7  -358.61285186078    -1.365E-06 1.109E-03 9.350E-04
 ETOT  8  -358.61285214401    -2.832E-07 1.323E-03 1.544E-04
 ETOT  9  -358.61285221482    -7.081E-08 3.070E-03 3.968E-06
 ETOT 10  -358.61285221671    -1.887E-09 1.424E-03 3.039E-07
 ETOT 11  -358.61285221673    -2.132E-11 1.805E-03 1.821E-07
 ETOT 12  -358.61285221680    -7.066E-11 6.231E-04 1.312E-08
 ETOT 13  -358.61285221680    -3.411E-12 4.715E-04 4.375E-10
 ETOT 14  -358.61285221680    -1.137E-13 5.248E-04 5.016E-10
 ETOT 15  -358.61285221680    -1.705E-13 2.431E-04 2.114E-11
 ETOT 16  -358.61285221680    -2.103E-12 3.515E-04 1.945E-12
 ETOT 17  -358.61285221680     7.958E-13 1.640E-04 6.191E-13
 ETOT 18  -358.61285221680     1.137E-12 4.840E-04 8.562E-14
 ETOT 19  -358.61285221680     6.821E-13 2.304E-04 2.504E-14
 ETOT 20  -358.61285221680    -1.421E-12 6.018E-04 7.469E-16
 ETOT 21  -358.61285221680     2.842E-13 2.445E-04 1.178E-16
 ETOT 22  -358.61285221680    -2.274E-13 5.589E-04 4.316E-17
 ETOT 23  -358.61285221680    -2.274E-13 1.971E-04 1.527E-17
 ETOT 24  -358.61285221680    -2.842E-13 4.043E-04 2.668E-19
 
 At SCF step   24       vres2   =  2.67E-19 < tolvrs=  1.00E-18 =>converged.
 
 Cartesian components of stress tensor (hartree/bohr^3)
  sigma(1 1)= -3.15819380E-04  sigma(3 2)= -4.54025577E-06
  sigma(2 2)= -3.68868714E-04  sigma(3 1)= -1.40577789E-06
  sigma(3 3)= -6.15278768E-04  sigma(2 1)=  9.39488366E-06
 

--- !ResultsGS
iteration_state: {dtset: 1, }
comment   : Summary of ground state results
lattice_vectors:
- [  9.5914335,   0.0000000,   0.0000000, ]
- [  0.0000000,   9.5914335,   0.0000000, ]
- [  0.0000000,   0.0000000,   9.5914335, ]
lattice_lengths: [   9.59143,    9.59143,    9.59143, ]
lattice_angles: [ 90.000,  90.000,  90.000, ] # degrees, (23, 13, 12)
lattice_volume:   8.8236964E+02
convergence: {deltae: -2.842E-13, res2:  2.668E-19, residm:  4.043E-04, diffor: null, }
etotal    :  -3.58612852E+02
entropy   :   0.00000000E+00
fermie    :   2.84694673E-01
cartesian_stress_tensor: # hartree/bohr^3
- [ -3.15819380E-04,   9.39488366E-06,  -1.40577789E-06, ]
- [  9.39488366E-06,  -3.68868714E-04,  -4.54025577E-06, ]
- [ -1.40577789E-06,  -4.54025577E-06,  -6.15278768E-04, ]
pressure_GPa:   1.2749E+01
xred      :
- [  1.4703E-02,   7.2701E-03,  -8.5351E-04, Hf]
- [  1.4703E-02,   5.0726E-01,   4.9915E-01, Hf]
- [  4.8442E-01,   7.2701E-03,   4.9914E-01, Hf]
- [  4.8442E-01,   5.0726E-01,  -8.3988E-04, Hf]
- [  2.1584E-01,   2.6283E-01,   7.3678E-01,  O]
- [  2.1571E-01,   7.6297E-01,   7.7142E-01,  O]
- [  2.8847E-01,   7.6295E-01,   2.7139E-01,  O]
- [  2.8838E-01,   2.6279E-01,   2.3674E-01,  O]
- [  8.1645E-01,   1.6801E-01,   3.6659E-01,  O]
- [  8.1652E-01,   6.6787E-01,   1.4147E-01,  O]
- [  6.8763E-01,   6.6782E-01,   6.4143E-01,  O]
- [  6.8778E-01,   1.6798E-01,   8.6656E-01,  O]
cartesian_forces: # hartree/bohr
- [ -1.48292693E-02,   1.34706641E-02,   4.81276222E-02, ]
- [ -1.39454479E-02,   1.24309914E-02,  -3.61501959E-02, ]
- [  2.07380536E-02,   1.58828317E-02,   4.88929535E-02, ]
- [  1.92162671E-02,   1.43559868E-02,  -3.66950196E-02, ]
- [  1.10130109E-02,  -8.40844193E-03,  -1.24580119E-03, ]
- [  1.26599110E-02,  -1.43760976E-02,  -8.01215009E-03, ]
- [ -1.45276745E-02,  -1.60955429E-02,  -8.59491328E-03, ]
- [ -1.27526933E-02,  -9.40963550E-03,  -8.44791613E-04, ]
- [  4.18913287E-03,  -3.00200818E-03,  -5.88037705E-03, ]
- [  6.71954704E-04,  -3.39938559E-03,   3.05116202E-03, ]
- [ -4.19916847E-03,  -1.13176718E-03,   4.87063705E-03, ]
- [ -8.23407669E-03,  -3.17595123E-04,  -7.51912605E-03, ]
force_length_stats: {min:   4.61702666E-03, max:   5.54333123E-02, mean:   2.46739192E-02, }
...

 Integrated electronic density in atomic spheres:
 ------------------------------------------------
 Atom  Sphere_radius  Integrated_density
    1        2.00000          8.35499861
    2        2.00000          8.34527236
    3        2.00000          8.35362712
    4        2.00000          8.34777126
    5        2.00000          6.41764598
    6        2.00000          6.41999347
    7        2.00000          6.42649177
    8        2.00000          6.42017536
    9        2.00000          6.34150256
   10        2.00000          6.34386790
   11        2.00000          6.34998343
   12        2.00000          6.35753634
================================================================================
 
 ----iterations are completed or convergence reached----
 
 Mean square residual over all n,k,spin=   26.585E-08; max=  40.431E-05
 reduced coordinates (array xred) for   12 atoms
       0.014702790000      0.007270080000     -0.000853510000
       0.014702880000      0.507260590000      0.499154270000
       0.484416560000      0.007270090000      0.499140650000
       0.484416500000      0.507260590000     -0.000839880000
       0.215836930000      0.262828850000      0.736776270000
       0.215707810000      0.762968060000      0.771415710000
       0.288467260000      0.762952560000      0.271390410000
       0.288375420000      0.262786930000      0.236740380000
       0.816453170000      0.168006880000      0.366588020000
       0.816524360000      0.667867660000      0.141465300000
       0.687630060000      0.667816640000      0.641429420000
       0.687779840000      0.167982260000      0.866562720000
 rms dE/dt=  1.6795E-01; max dE/dt=  3.5195E-01; dE/dt below (all hartree)
    1       0.141942789003     -0.129207368540     -0.461616072430
    2       0.133465674807     -0.119235417318      0.346729013863
    3      -0.199198822771     -0.152343513457     -0.468956697255
    4      -0.184602709066     -0.137698882426      0.351954654117
    5      -0.105921722536      0.080644621614      0.011945833682
    6      -0.121717855500      0.137882993964      0.076844819103
    7       0.139050062279      0.154374939170      0.082434353517
    8       0.122025448170      0.090247503163      0.008099577013
    9      -0.040470950489      0.028789171957      0.056398059796
   10      -0.006736170072      0.032600590933     -0.029268203095
   11       0.039984883823      0.010850879775     -0.046719576884
   12       0.078685437649      0.003041802619      0.072116011870
 
 cartesian coordinates (angstrom) at end:
    1      0.07462501043472     0.03689978540544    -0.00433204804368
    2      0.07462546723584     2.57463561826512     2.53349143987536
    3      2.45868919060608     0.03689983616112     2.53342231063920
    4      2.45868888607200     2.57463561826512    -0.00426286805184
    5      1.09549501512624     1.33400570053680     3.73955805917136
    6      1.09483965778608     3.87249627035808     3.91537289237328
    7      1.46413519390368     3.87241759905408     1.37746048050288
    8      1.46366905373856     1.33379293272624     1.20159189703584
    9      4.14396358315056     0.85273034390784     1.86064242349536
   10      4.14432491283648     3.38980772333088     0.71801674979040
   11      3.49011312837408     3.38954876785152     3.25561863841056
   12      3.49087334694912     0.85260538342368     4.39829801162496
 
 cartesian forces (hartree/bohr) at end:
    1     -0.01482926930513     0.01347066408916     0.04812762215461
    2     -0.01394544790281     0.01243099142356    -0.03615019588311
    3      0.02073805357427     0.01588283167013     0.04889295351337
    4      0.01921626710491     0.01435598679876    -0.03669501958027
    5      0.01101301087409    -0.00840844192759    -0.00124580118859
    6      0.01265991099415    -0.01437609758789    -0.00801215008698
    7     -0.01452767447813    -0.01609554288504    -0.00859491328085
    8     -0.01275269327960    -0.00940963549887    -0.00084479161338
    9      0.00418913286636    -0.00300200818461    -0.00588037704897
   10      0.00067195470358    -0.00339938559236     0.00305116201563
   11     -0.00419916846580    -0.00113176718229     0.00487063705123
   12     -0.00823407668589    -0.00031759512296    -0.00751912605269
 frms,max,avg= 1.7510554E-02 4.8892954E-02   3.036E-05  4.577E-07  3.321E-07 h/b
 
 cartesian forces (eV/Angstrom) at end:
    1     -0.76255162330301     0.69268934003400     2.47482162772592
    2     -0.71710370330211     0.63922722652423    -1.85891765711271
    3      1.06639350137978     0.81672797381314     2.51417654521885
    4      0.98814010138714     0.73821446035253    -1.88693361569658
    5      0.56631174110396    -0.43237943214879    -0.06406166744472
    6      0.65099874314902    -0.73924859862192    -0.41200128807817
    7     -0.74704299505071    -0.82766602334780    -0.44196817385941
    8     -0.65576979969450    -0.48386287123869    -0.04344092772773
    9      0.21541385497481    -0.15436945457264    -0.30238112020639
   10      0.03455329723006    -0.17480342074512     0.15689704597760
   11     -0.21592990620323    -0.05819780356680     0.25045820623483
   12     -0.42341321167121    -0.01633139648215    -0.38664897503151
 frms,max,avg= 9.0042882E-01 2.5141765E+00   1.561E-03  2.354E-05  1.708E-05 e/A
 length scales=  9.591433488838  9.591433488838  9.591433488838 bohr
              =  5.075568000000  5.075568000000  5.075568000000 angstroms
 prteigrs : about to open file o_EIG
 Fermi (or HOMO) energy (hartree) =   0.28469   Average Vxc (hartree)=  -0.44606
 Eigenvalues (hartree) for nkpt= 112  k points:
 kpt#   1, nband= 50, wtk=  0.00463, kpt=  0.0000  0.0000  0.0000 (reduced coord)
  -1.94231   -1.94141   -1.94096   -1.94021   -0.80648   -0.80589   -0.80533   -0.79457
  -0.79355   -0.79309   -0.79244   -0.79214   -0.79061   -0.78749   -0.78697   -0.78667
  -0.39989   -0.34746   -0.34556   -0.34195   -0.31106   -0.30764   -0.30686   -0.29995
   0.06495    0.06630    0.07564    0.09417    0.09889    0.10653    0.16027    0.16502
   0.16806    0.16848    0.17331    0.18376    0.19267    0.20516    0.21596    0.21821
   0.22983    0.23217    0.23305    0.23482    0.24883    0.26324    0.28238    0.28469
   0.45642    0.46169
 prteigrs : prtvol=0 or 1, do not print more k-points.
 

--- !EnergyTerms
iteration_state     : {dtset: 1, }
comment             : Components of total free energy in Hartree
kinetic             :  1.46480070903165E+02
hartree             :  5.63445325603628E+01
xc                  : -9.09651658499439E+01
Ewald energy        : -2.69532682141041E+02
psp_core            :  1.49595106529080E+01
local_psp           : -2.06762607745692E+02
non_local_psp       : -9.13651059656189E+00
total_energy        : -3.58612852216803E+02
total_energy_eV     : -9.75835197880088E+03
band_energy         : -3.12944907773644E+01
...

 
 Cartesian components of stress tensor (hartree/bohr^3)
  sigma(1 1)= -3.15819380E-04  sigma(3 2)= -4.54025577E-06
  sigma(2 2)= -3.68868714E-04  sigma(3 1)= -1.40577789E-06
  sigma(3 3)= -6.15278768E-04  sigma(2 1)=  9.39488366E-06
 
-Cartesian components of stress tensor (GPa)         [Pressure=  1.2749E+01 GPa]
- sigma(1 1)= -9.29172538E+00  sigma(3 2)= -1.33578914E-01
- sigma(2 2)= -1.08524904E+01  sigma(3 1)= -4.13594064E-02
- sigma(3 3)= -1.81021233E+01  sigma(2 1)=  2.76406974E-01
 
== END DATASET(S) ==============================================================
================================================================================
  
 -outvars: echo values of variables after computation  --------
            acell      9.5914334888E+00  9.5914334888E+00  9.5914334888E+00 Bohr
              amu      1.78490000E+02  1.59994000E+01
          chkprim           0
             ecut      2.50000000E+01 Hartree
           ecutsm      5.00000000E-01 Hartree
           etotal     -3.5861285222E+02
            fcart     -1.4829269305E-02  1.3470664089E-02  4.8127622155E-02
                      -1.3945447903E-02  1.2430991424E-02 -3.6150195883E-02
                       2.0738053574E-02  1.5882831670E-02  4.8892953513E-02
                       1.9216267105E-02  1.4355986799E-02 -3.6695019580E-02
                       1.1013010874E-02 -8.4084419276E-03 -1.2458011886E-03
                       1.2659910994E-02 -1.4376097588E-02 -8.0121500870E-03
                      -1.4527674478E-02 -1.6095542885E-02 -8.5949132808E-03
                      -1.2752693280E-02 -9.4096354989E-03 -8.4479161338E-04
                       4.1891328664E-03 -3.0020081846E-03 -5.8803770490E-03
                       6.7195470358E-04 -3.3993855924E-03  3.0511620156E-03
                      -4.1991684658E-03 -1.1317671823E-03  4.8706370512E-03
                      -8.2340766859E-03 -3.1759512296E-04 -7.5191260527E-03
-          fftalg         512
           istwfk        2    0    0    3    0    0    0    0    0    0
                         0    0    0    0    0    0    6    0    0    7
                         0    0    0    0    0    0    0    0    0    0
                         0    0    0    0    0    0    0    0    0    0
                         0    0    0    0    0    0    0    0    0    0
                       outvar_i_n : Printing only first  50 k-points.
              ixc          11
              kpt      0.00000000E+00  0.00000000E+00  0.00000000E+00
                       1.66666667E-01  0.00000000E+00  0.00000000E+00
                       3.33333333E-01  0.00000000E+00  0.00000000E+00
                       5.00000000E-01  0.00000000E+00  0.00000000E+00
                       0.00000000E+00  1.66666667E-01  0.00000000E+00
                       1.66666667E-01  1.66666667E-01  0.00000000E+00
                       3.33333333E-01  1.66666667E-01  0.00000000E+00
                       5.00000000E-01  1.66666667E-01  0.00000000E+00
                      -3.33333333E-01  1.66666667E-01  0.00000000E+00
                      -1.66666667E-01  1.66666667E-01  0.00000000E+00
                       0.00000000E+00  3.33333333E-01  0.00000000E+00
                       1.66666667E-01  3.33333333E-01  0.00000000E+00
                       3.33333333E-01  3.33333333E-01  0.00000000E+00
                       5.00000000E-01  3.33333333E-01  0.00000000E+00
                      -3.33333333E-01  3.33333333E-01  0.00000000E+00
                      -1.66666667E-01  3.33333333E-01  0.00000000E+00
                       0.00000000E+00  5.00000000E-01  0.00000000E+00
                       1.66666667E-01  5.00000000E-01  0.00000000E+00
                       3.33333333E-01  5.00000000E-01  0.00000000E+00
                       5.00000000E-01  5.00000000E-01  0.00000000E+00
                       0.00000000E+00  0.00000000E+00  1.66666667E-01
                       1.66666667E-01  0.00000000E+00  1.66666667E-01
                       3.33333333E-01  0.00000000E+00  1.66666667E-01
                       5.00000000E-01  0.00000000E+00  1.66666667E-01
                      -3.33333333E-01  0.00000000E+00  1.66666667E-01
                      -1.66666667E-01  0.00000000E+00  1.66666667E-01
                       0.00000000E+00  1.66666667E-01  1.66666667E-01
                       1.66666667E-01  1.66666667E-01  1.66666667E-01
                       3.33333333E-01  1.66666667E-01  1.66666667E-01
                       5.00000000E-01  1.66666667E-01  1.66666667E-01
                      -3.33333333E-01  1.66666667E-01  1.66666667E-01
                      -1.66666667E-01  1.66666667E-01  1.66666667E-01
                       0.00000000E+00  3.33333333E-01  1.66666667E-01
                       1.66666667E-01  3.33333333E-01  1.66666667E-01
                       3.33333333E-01  3.33333333E-01  1.66666667E-01
                       5.00000000E-01  3.33333333E-01  1.66666667E-01
                      -3.33333333E-01  3.33333333E-01  1.66666667E-01
                      -1.66666667E-01  3.33333333E-01  1.66666667E-01
                       0.00000000E+00  5.00000000E-01  1.66666667E-01
                       1.66666667E-01  5.00000000E-01  1.66666667E-01
                       3.33333333E-01  5.00000000E-01  1.66666667E-01
                       5.00000000E-01  5.00000000E-01  1.66666667E-01
                      -3.33333333E-01  5.00000000E-01  1.66666667E-01
                      -1.66666667E-01  5.00000000E-01  1.66666667E-01
                       0.00000000E+00 -3.33333333E-01  1.66666667E-01
                       1.66666667E-01 -3.33333333E-01  1.66666667E-01
                       3.33333333E-01 -3.33333333E-01  1.66666667E-01
                       5.00000000E-01 -3.33333333E-01  1.66666667E-01
                      -3.33333333E-01 -3.33333333E-01  1.66666667E-01
                      -1.66666667E-01 -3.33333333E-01  1.66666667E-01
                       outvar_i_n : Printing only first  50 k-points.
           kptopt           2
         kptrlatt        6    0    0      0    6    0      0    0    6
          kptrlen      5.75486009E+01
P           mkmem           4
            natom          12
            nband          50
            ngfft          45      45      45
             nkpt         112
            nstep         100
             nsym           1
           ntypat           2
              occ      2.000000  2.000000  2.000000  2.000000  2.000000  2.000000
                       2.000000  2.000000  2.000000  2.000000  2.000000  2.000000
                       2.000000  2.000000  2.000000  2.000000  2.000000  2.000000
                       2.000000  2.000000  2.000000  2.000000  2.000000  2.000000
                       2.000000  2.000000  2.000000  2.000000  2.000000  2.000000
                       2.000000  2.000000  2.000000  2.000000  2.000000  2.000000
                       2.000000  2.000000  2.000000  2.000000  2.000000  2.000000
                       2.000000  2.000000  2.000000  2.000000  2.000000  2.000000
                       0.000000  0.000000
        pawecutdg      2.50000000E+01 Hartree
         pawxcdev           0
          spgroup           1
           strten     -3.1581937968E-04 -3.6886871406E-04 -6.1527876756E-04
                      -4.5402557664E-06 -1.4057778858E-06  9.3948836628E-06
        symmorphi           0
           tolmxf      1.00000000E-05
           tolvrs      1.00000000E-18
           tsmear      4.00000000E-02 Hartree
            typat      1  1  1  1  2  2  2  2  2  2  2  2
              wtk        0.00463    0.00926    0.00926    0.00463    0.00926    0.00926
                         0.00926    0.00926    0.00926    0.00926    0.00926    0.00926
                         0.00926    0.00926    0.00926    0.00926    0.00463    0.00926
                         0.00926    0.00463    0.00926    0.00926    0.00926    0.00926
                         0.00926    0.00926    0.00926    0.00926    0.00926    0.00926
                         0.00926    0.00926    0.00926    0.00926    0.00926    0.00926
                         0.00926    0.00926    0.00926    0.00926    0.00926    0.00926
                         0.00926    0.00926    0.00926    0.00926    0.00926    0.00926
                         0.00926    0.00926
                       outvars : Printing only first  50 k-points.
           xangst      7.4625010435E-02  3.6899785405E-02 -4.3320480437E-03
                       7.4625467236E-02  2.5746356183E+00  2.5334914399E+00
                       2.4586891906E+00  3.6899836161E-02  2.5334223106E+00
                       2.4586888861E+00  2.5746356183E+00 -4.2628680518E-03
                       1.0954950151E+00  1.3340057005E+00  3.7395580592E+00
                       1.0948396578E+00  3.8724962704E+00  3.9153728924E+00
                       1.4641351939E+00  3.8724175991E+00  1.3774604805E+00
                       1.4636690537E+00  1.3337929327E+00  1.2015918970E+00
                       4.1439635832E+00  8.5273034391E-01  1.8606424235E+00
                       4.1443249128E+00  3.3898077233E+00  7.1801674979E-01
                       3.4901131284E+00  3.3895487679E+00  3.2556186384E+00
                       3.4908733469E+00  8.5260538342E-01  4.3982980116E+00
            xcart      1.4102083239E-01  6.9730488779E-02 -8.1863843971E-03
                       1.4102169561E-01  4.8653562105E+00  4.7876049814E+00
                       4.6462492161E+00  6.9730584693E-02  4.7874743461E+00
                       4.6462486406E+00  4.8653562105E+00 -8.0556531586E-03
                       2.0701855585E+00  2.5209054337E+00  7.0667405899E+00
                       2.0689471126E+00  7.3179574016E+00  7.3989824747E+00
                       2.7668145380E+00  7.3178087344E+00  2.6030230670E+00
                       2.7659336607E+00  2.5205033608E+00  2.2706796089E+00
                       7.8309562768E+00  1.6114268152E+00  3.5161046116E+00
                       7.8316390910E+00  6.4058082402E+00  1.3568550159E+00
                       6.5953579854E+00  6.4053188853E+00  6.1522276197E+00
                       6.5967945903E+00  1.6111906741E+00  8.3115786928E+00
             xred      1.4702790000E-02  7.2700800000E-03 -8.5351000000E-04
                       1.4702880000E-02  5.0726059000E-01  4.9915427000E-01
                       4.8441656000E-01  7.2700900000E-03  4.9914065000E-01
                       4.8441650000E-01  5.0726059000E-01 -8.3988000000E-04
                       2.1583693000E-01  2.6282885000E-01  7.3677627000E-01
                       2.1570781000E-01  7.6296806000E-01  7.7141571000E-01
                       2.8846726000E-01  7.6295256000E-01  2.7139041000E-01
                       2.8837542000E-01  2.6278693000E-01  2.3674038000E-01
                       8.1645317000E-01  1.6800688000E-01  3.6658802000E-01
                       8.1652436000E-01  6.6786766000E-01  1.4146530000E-01
                       6.8763006000E-01  6.6781664000E-01  6.4142942000E-01
                       6.8777984000E-01  1.6798226000E-01  8.6656272000E-01
            znucl       72.00000    8.00000
 
================================================================================


- Timing analysis has been suppressed with timopt=0



================================================================================

 Suggested references for the acknowledgment of ABINIT usage.

 The users of ABINIT have little formal obligations with respect to the ABINIT group
 (those specified in the GNU General Public License, http://www.gnu.org/copyleft/gpl.txt).
 However, it is common practice in the scientific literature,
 to acknowledge the efforts of people that have made the research possible.
 In this spirit, please find below suggested citations of work written by ABINIT developers,
 corresponding to implementations inside of ABINIT that you have used in the present run.
 Note also that it will be of great value to readers of publications presenting these results,
 to read papers enabling them to understand the theoretical formalism and details
 of the ABINIT implementation.
 For information on why they are suggested, see also https://docs.abinit.org/theory/acknowledgments.
-
- [1] Specification of an extensible and portable file format for electronic structure and crystallographic data
- X. Gonze, C.-O. Almbladh, A. Cucca, D. Caliste, C. Freysoldt, M. Marques, V. Olevano, Y. Pouillon, M.J. Verstraete,
- Comput. Material Science 43, 1056 (2008).
- Comment: to be cited in case the ETSF_IO file format is used, i.e. iomode=3.
- DOI and bibtex: see https://docs.abinit.org/theory/bibliography/#gonze2008
-
- [2] The Abinit project: Impact, environment and recent developments.
- Computer Phys. Comm. 248, 107042 (2020).
- X.Gonze, B. Amadon, G. Antonius, F.Arnardi, L.Baguet, J.-M.Beuken,
- J.Bieder, F.Bottin, J.Bouchet, E.Bousquet, N.Brouwer, F.Bruneval,
- G.Brunin, T.Cavignac, J.-B. Charraud, Wei Chen, M.Cote, S.Cottenier,
- J.Denier, G.Geneste, Ph.Ghosez, M.Giantomassi, Y.Gillet, O.Gingras,
- D.R.Hamann, G.Hautier, Xu He, N.Helbig, N.Holzwarth, Y.Jia, F.Jollet,
- W.Lafargue-Dit-Hauret, K.Lejaeghere, M.A.L.Marques, A.Martin, C.Martins,
- H.P.C. Miranda, F.Naccarato, K. Persson, G.Petretto, V.Planes, Y.Pouillon,
- S.Prokhorenko, F.Ricci, G.-M.Rignanese, A.H.Romero, M.M.Schmitt, M.Torrent,
- M.J.van Setten, B.Van Troeye, M.J.Verstraete, G.Zerah and J.W.Zwanzig
- Comment: the fifth generic paper describing the ABINIT project.
- Note that a version of this paper, that is not formatted for Computer Phys. Comm. 
- is available at https://www.abinit.org/sites/default/files/ABINIT20.pdf .
- The licence allows the authors to put it on the Web.
- DOI and bibtex: see https://docs.abinit.org/theory/bibliography/#gonze2020
-
- [3] Optimized norm-conserving Vanderbilt pseudopotentials.
- D.R. Hamann, Phys. Rev. B 88, 085117 (2013).
- Comment: Some pseudopotential generated using the ONCVPSP code were used.
- DOI and bibtex: see https://docs.abinit.org/theory/bibliography/#hamann2013
-
- [4] ABINIT: Overview, and focus on selected capabilities
- J. Chem. Phys. 152, 124102 (2020).
- A. Romero, D.C. Allan, B. Amadon, G. Antonius, T. Applencourt, L.Baguet,
- J.Bieder, F.Bottin, J.Bouchet, E.Bousquet, F.Bruneval,
- G.Brunin, D.Caliste, M.Cote,
- J.Denier, C. Dreyer, Ph.Ghosez, M.Giantomassi, Y.Gillet, O.Gingras,
- D.R.Hamann, G.Hautier, F.Jollet, G. Jomard,
- A.Martin, 
- H.P.C. Miranda, F.Naccarato, G.Petretto, N.A. Pike, V.Planes,
- S.Prokhorenko, T. Rangel, F.Ricci, G.-M.Rignanese, M.Royo, M.Stengel, M.Torrent,
- M.J.van Setten, B.Van Troeye, M.J.Verstraete, J.Wiktor, J.W.Zwanziger, and X.Gonze.
- Comment: a global overview of ABINIT, with focus on selected capabilities .
- Note that a version of this paper, that is not formatted for J. Chem. Phys 
- is available at https://www.abinit.org/sites/default/files/ABINIT20_JPC.pdf .
- The licence allows the authors to put it on the Web.
- DOI and bibtex: see https://docs.abinit.org/theory/bibliography/#romero2020
-
- [5] Recent developments in the ABINIT software package.
- Computer Phys. Comm. 205, 106 (2016).
- X.Gonze, F.Jollet, F.Abreu Araujo, D.Adams, B.Amadon, T.Applencourt,
- C.Audouze, J.-M.Beuken, J.Bieder, A.Bokhanchuk, E.Bousquet, F.Bruneval
- D.Caliste, M.Cote, F.Dahm, F.Da Pieve, M.Delaveau, M.Di Gennaro,
- B.Dorado, C.Espejo, G.Geneste, L.Genovese, A.Gerossier, M.Giantomassi,
- Y.Gillet, D.R.Hamann, L.He, G.Jomard, J.Laflamme Janssen, S.Le Roux,
- A.Levitt, A.Lherbier, F.Liu, I.Lukacevic, A.Martin, C.Martins,
- M.J.T.Oliveira, S.Ponce, Y.Pouillon, T.Rangel, G.-M.Rignanese,
- A.H.Romero, B.Rousseau, O.Rubel, A.A.Shukri, M.Stankovski, M.Torrent,
- M.J.Van Setten, B.Van Troeye, M.J.Verstraete, D.Waroquier, J.Wiktor,
- B.Xu, A.Zhou, J.W.Zwanziger.
- Comment: the fourth generic paper describing the ABINIT project.
- Note that a version of this paper, that is not formatted for Computer Phys. Comm. 
- is available at https://www.abinit.org/sites/default/files/ABINIT16.pdf .
- The licence allows the authors to put it on the Web.
- DOI and bibtex: see https://docs.abinit.org/theory/bibliography/#gonze2016
-
- Proc.   0 individual time (sec): cpu=        131.9  wall=        135.0
 
================================================================================
 
 Calculation completed.
.Delivered   0 WARNINGs and   0 COMMENTs to log file.
+Overall time at end (sec) : cpu=       4802.5  wall=       4860.6
