
.Version 9.4.1 of ABINIT 
.(MPI version, prepared for a x86_64_linux_intel19.0 computer) 

.Copyright (C) 1998-2021 ABINIT group . 
 ABINIT comes with ABSOLUTELY NO WARRANTY.
 It is free software, and you are welcome to redistribute it
 under certain conditions (GNU General Public License,
 see ~abinit/COPYING or http://www.gnu.org/copyleft/gpl.txt).

 ABINIT is a project of the Universite Catholique de Louvain,
 Corning Inc. and other collaborators, see ~abinit/doc/developers/contributors.txt .
 Please read https://docs.abinit.org/theory/acknowledgments for suggested
 acknowledgments of the ABINIT effort.
 For more information, see https://www.abinit.org .

.Starting date : Sat  3 Jul 2021.
- ( at 08h59 )
  
- input  file    -> PATH2
- output file    -> PATH2.abo
- root for input  files -> i
- root for output files -> o
 
 
 Symmetries : space group P2 (#  3); Bravais mP (primitive monocl.)
================================================================================
 Values of the parameters that define the memory need of the present run
     intxc =       0    ionmov =       0      iscf =       7    lmnmax =       8
     lnmax =       8     mgfft =      45  mpssoang =       4    mqgrid =    3001
     natom =      12  nloc_mem =       1    nspden =       1   nspinor =       1
    nsppol =       1      nsym =       2    n1xccc =    2501    ntypat =       2
    occopt =       1   xclevel =       2
-    mband =          50        mffmem =           1         mkmem =           4
       mpw =        5280          nfft =       91125          nkpt =         112
================================================================================
P This job should need less than                      47.640 Mbytes of memory.
  Rough estimation (10% accuracy) of disk space for files :
_ WF disk file :    451.174 Mbytes ; DEN or POT disk file :      0.697 Mbytes.
================================================================================
 
--------------------------------------------------------------------------------
------------- Echo of variables that govern the present computation ------------
--------------------------------------------------------------------------------
-
- outvars: echo of selected default values                                      
-   iomode0 =  3 , fftalg0 =512 , wfoptalg0 =  0
-
- outvars: echo of global parameters not present in the input file              
-  max_nthreads =    0
-
 -outvars: echo values of preprocessed input variables --------
            acell      9.5914334888E+00  9.5914334888E+00  9.5914334888E+00 Bohr
              amu      1.78490000E+02  1.59994000E+01
          chkprim           0
             ecut      2.50000000E+01 Hartree
           ecutsm      5.00000000E-01 Hartree
-          fftalg         512
           istwfk        2    0    0    3    0    0    0    0    0    0
                         0    0    0    0    0    0    6    0    0    7
                         0    0    0    0    0    0    0    0    0    0
                         0    0    0    0    0    0    0    0    0    0
                         0    0    0    0    0    0    0    0    0    0
                       outvar_i_n : Printing only first  50 k-points.
              ixc          11
              kpt      0.00000000E+00  0.00000000E+00  0.00000000E+00
                       1.66666667E-01  0.00000000E+00  0.00000000E+00
                       3.33333333E-01  0.00000000E+00  0.00000000E+00
                       5.00000000E-01  0.00000000E+00  0.00000000E+00
                       0.00000000E+00  1.66666667E-01  0.00000000E+00
                       1.66666667E-01  1.66666667E-01  0.00000000E+00
                       3.33333333E-01  1.66666667E-01  0.00000000E+00
                       5.00000000E-01  1.66666667E-01  0.00000000E+00
                      -3.33333333E-01  1.66666667E-01  0.00000000E+00
                      -1.66666667E-01  1.66666667E-01  0.00000000E+00
                       0.00000000E+00  3.33333333E-01  0.00000000E+00
                       1.66666667E-01  3.33333333E-01  0.00000000E+00
                       3.33333333E-01  3.33333333E-01  0.00000000E+00
                       5.00000000E-01  3.33333333E-01  0.00000000E+00
                      -3.33333333E-01  3.33333333E-01  0.00000000E+00
                      -1.66666667E-01  3.33333333E-01  0.00000000E+00
                       0.00000000E+00  5.00000000E-01  0.00000000E+00
                       1.66666667E-01  5.00000000E-01  0.00000000E+00
                       3.33333333E-01  5.00000000E-01  0.00000000E+00
                       5.00000000E-01  5.00000000E-01  0.00000000E+00
                       0.00000000E+00  0.00000000E+00  1.66666667E-01
                       1.66666667E-01  0.00000000E+00  1.66666667E-01
                       3.33333333E-01  0.00000000E+00  1.66666667E-01
                       5.00000000E-01  0.00000000E+00  1.66666667E-01
                      -3.33333333E-01  0.00000000E+00  1.66666667E-01
                      -1.66666667E-01  0.00000000E+00  1.66666667E-01
                       0.00000000E+00  1.66666667E-01  1.66666667E-01
                       1.66666667E-01  1.66666667E-01  1.66666667E-01
                       3.33333333E-01  1.66666667E-01  1.66666667E-01
                       5.00000000E-01  1.66666667E-01  1.66666667E-01
                      -3.33333333E-01  1.66666667E-01  1.66666667E-01
                      -1.66666667E-01  1.66666667E-01  1.66666667E-01
                       0.00000000E+00  3.33333333E-01  1.66666667E-01
                       1.66666667E-01  3.33333333E-01  1.66666667E-01
                       3.33333333E-01  3.33333333E-01  1.66666667E-01
                       5.00000000E-01  3.33333333E-01  1.66666667E-01
                      -3.33333333E-01  3.33333333E-01  1.66666667E-01
                      -1.66666667E-01  3.33333333E-01  1.66666667E-01
                       0.00000000E+00  5.00000000E-01  1.66666667E-01
                       1.66666667E-01  5.00000000E-01  1.66666667E-01
                       3.33333333E-01  5.00000000E-01  1.66666667E-01
                       5.00000000E-01  5.00000000E-01  1.66666667E-01
                      -3.33333333E-01  5.00000000E-01  1.66666667E-01
                      -1.66666667E-01  5.00000000E-01  1.66666667E-01
                       0.00000000E+00 -3.33333333E-01  1.66666667E-01
                       1.66666667E-01 -3.33333333E-01  1.66666667E-01
                       3.33333333E-01 -3.33333333E-01  1.66666667E-01
                       5.00000000E-01 -3.33333333E-01  1.66666667E-01
                      -3.33333333E-01 -3.33333333E-01  1.66666667E-01
                      -1.66666667E-01 -3.33333333E-01  1.66666667E-01
                       outvar_i_n : Printing only first  50 k-points.
           kptopt           2
         kptrlatt        6    0    0      0    6    0      0    0    6
          kptrlen      5.75486009E+01
P           mkmem           4
            natom          12
            nband          50
            ngfft          45      45      45
             nkpt         112
            nstep         100
             nsym           2
           ntypat           2
              occ      2.000000  2.000000  2.000000  2.000000  2.000000  2.000000
                       2.000000  2.000000  2.000000  2.000000  2.000000  2.000000
                       2.000000  2.000000  2.000000  2.000000  2.000000  2.000000
                       2.000000  2.000000  2.000000  2.000000  2.000000  2.000000
                       2.000000  2.000000  2.000000  2.000000  2.000000  2.000000
                       2.000000  2.000000  2.000000  2.000000  2.000000  2.000000
                       2.000000  2.000000  2.000000  2.000000  2.000000  2.000000
                       2.000000  2.000000  2.000000  2.000000  2.000000  2.000000
                       0.000000  0.000000
        pawecutdg      2.50000000E+01 Hartree
         pawxcdev           0
          spgroup           3
        symmorphi           0
           symrel      1  0  0   0  1  0   0  0  1      -1  0  0   0  1  0   0  0 -1
           tolmxf      1.00000000E-05
           tolvrs      1.00000000E-18
           tsmear      4.00000000E-02 Hartree
            typat      1  1  1  1  2  2  2  2  2  2  2  2
              wtk        0.00463    0.00926    0.00926    0.00463    0.00926    0.00926
                         0.00926    0.00926    0.00926    0.00926    0.00926    0.00926
                         0.00926    0.00926    0.00926    0.00926    0.00463    0.00926
                         0.00926    0.00463    0.00926    0.00926    0.00926    0.00926
                         0.00926    0.00926    0.00926    0.00926    0.00926    0.00926
                         0.00926    0.00926    0.00926    0.00926    0.00926    0.00926
                         0.00926    0.00926    0.00926    0.00926    0.00926    0.00926
                         0.00926    0.00926    0.00926    0.00926    0.00926    0.00926
                         0.00926    0.00926
                       outvars : Printing only first  50 k-points.
           xangst      0.0000000000E+00  2.8552100227E-03  0.0000000000E+00
                       0.0000000000E+00  2.5406629129E+00  2.5377840000E+00
                       2.5377840000E+00  2.8597272782E-03  2.5377840000E+00
                       2.5377840000E+00  2.5406362154E+00  0.0000000000E+00
                       1.2560749219E+00  1.2551673596E+00  3.5608294439E+00
                       1.2562646974E+00  3.7929513596E+00  4.0524949450E+00
                       1.2815192518E+00  3.7931466167E+00  1.5147109958E+00
                       1.2817091288E+00  1.2553626167E+00  1.0230454439E+00
                       3.8194930781E+00  1.2551673596E+00  1.5147385561E+00
                       3.8193033026E+00  3.7929513596E+00  1.0230730550E+00
                       3.7940487482E+00  3.7931466167E+00  3.5608570042E+00
                       3.7938588712E+00  1.2553626167E+00  4.0525225561E+00
            xcart      0.0000000000E+00  5.3955649948E-03  0.0000000000E+00
                       0.0000000000E+00  4.8011571014E+00  4.7957167444E+00
                       4.7957167444E+00  5.4041013706E-03  4.7957167444E+00
                       4.7957167444E+00  4.8011066505E+00  0.0000000000E+00
                       2.3736376048E+00  2.3719225606E+00  6.7289924549E+00
                       2.3739962285E+00  7.1676393050E+00  7.6581056010E+00
                       2.4217204200E+00  7.1680082874E+00  2.8623889525E+00
                       2.4220792355E+00  2.3722915430E+00  1.9332757105E+00
                       7.2177958840E+00  2.3719225606E+00  2.8624410340E+00
                       7.2174372603E+00  7.1676393050E+00  1.9333278879E+00
                       7.1697130688E+00  7.1680082874E+00  6.7290445364E+00
                       7.1693542533E+00  2.3722915430E+00  7.6581577784E+00
             xred      0.0000000000E+00  5.6254000000E-04  0.0000000000E+00
                       0.0000000000E+00  5.0056721000E-01  5.0000000000E-01
                       5.0000000000E-01  5.6343000000E-04  5.0000000000E-01
                       5.0000000000E-01  5.0056195000E-01  0.0000000000E+00
                       2.4747475000E-01  2.4729594000E-01  7.0156275000E-01
                       2.4751214000E-01  7.4729594000E-01  7.9843181000E-01
                       2.5248785000E-01  7.4733441000E-01  2.9843182000E-01
                       2.5252526000E-01  2.4733441000E-01  2.0156275000E-01
                       7.5252525000E-01  2.4729594000E-01  2.9843725000E-01
                       7.5248786000E-01  7.4729594000E-01  2.0156819000E-01
                       7.4751215000E-01  7.4733441000E-01  7.0156818000E-01
                       7.4747474000E-01  2.4733441000E-01  7.9843725000E-01
            znucl       72.00000    8.00000
 
================================================================================
 
 chkinp: Checking input parameters for consistency.
 
================================================================================
== DATASET  1 ==================================================================
-   mpi_nproc: 36, omp_nthreads: -1 (-1 if OMP is not activated)
-    --> not optimal distribution: autoparal keyword recommended in input file <--
 

--- !DatasetInfo
iteration_state: {dtset: 1, }
dimensions: {natom: 12, nkpt: 112, mband: 50, nsppol: 1, nspinor: 1, nspden: 1, mpw: 5280, }
cutoff_energies: {ecut:  25.0, pawecutdg:  25.0, }
electrons: {nelect:   9.60000000E+01, charge:   0.00000000E+00, occopt:   1.00000000E+00, tsmear:   4.00000000E-02, }
meta: {optdriver: 0, ionmov: 0, optcell: 0, iscf: 7, paral_kgb: 0, }
...

 Exchange-correlation functional for the present dataset will be:
  GGA: Perdew-Burke-Ernzerhof functional - ixc=11
 Citation for XC functional:
  J.P.Perdew, K.Burke, M.Ernzerhof, PRL 77, 3865 (1996)
 
 Real(R)+Recip(G) space primitive vectors, cartesian coordinates (Bohr,Bohr^-1):
 R(1)=  9.5914335  0.0000000  0.0000000  G(1)=  0.1042597  0.0000000  0.0000000
 R(2)=  0.0000000  9.5914335  0.0000000  G(2)=  0.0000000  0.1042597  0.0000000
 R(3)=  0.0000000  0.0000000  9.5914335  G(3)=  0.0000000  0.0000000  0.1042597
 Unit cell volume ucvol=  8.8236964E+02 bohr^3
 Angles (23,13,12)=  9.00000000E+01  9.00000000E+01  9.00000000E+01 degrees
 
 getcut: wavevector=  0.0000  0.0000  0.0000  ngfft=  45  45  45
         ecut(hartree)=     25.000   => boxcut(ratio)=   2.03814
 
--- Pseudopotential description ------------------------------------------------
- pspini: atom type   1  psp file is /workspace/jiahaoz/PACKAGE_INSTALL/abinit-9.4.1/pbe_s_sr/Hf.psp8
- pspatm: opening atomic psp file    /workspace/jiahaoz/PACKAGE_INSTALL/abinit-9.4.1/pbe_s_sr/Hf.psp8
- Hf    ONCVPSP  r_core=  1.72  1.72  1.72  2.43
- 72.00000  12.00000    160625                znucl, zion, pspdat
    8   11    3    4       600   0.00000      pspcod,pspxc,lmax,lloc,mmax,r2well
    5.99000000000000    5.40000000000000    0.00000000000000   rchrg,fchrg,qchrg
     nproj     2     2     2     2
     extension_switch     1
  pspatm : epsatm=   21.98649506
         --- l  ekb(1:nproj) -->
             0    5.812335   -0.521211
             1   -3.038329    2.466565
             2    2.060039    0.471534
             3    9.947446    0.353012
 pspatm: atomic psp has been read  and splines computed
 
- pspini: atom type   2  psp file is /workspace/jiahaoz/PACKAGE_INSTALL/abinit-9.4.1/pbe_s_sr/O.psp8
- pspatm: opening atomic psp file    /workspace/jiahaoz/PACKAGE_INSTALL/abinit-9.4.1/pbe_s_sr/O.psp8
- O     ONCVPSP  r_core=  1.36  1.46  1.26
-  8.00000   6.00000    151103                znucl, zion, pspdat
    8   11    2    4       600   0.00000      pspcod,pspxc,lmax,lloc,mmax,r2well
    5.99000000000000    4.00000000000000    0.00000000000000   rchrg,fchrg,qchrg
     nproj     2     2     1
     extension_switch     1
  pspatm : epsatm=    6.19401560
         --- l  ekb(1:nproj) -->
             0    5.257212    0.704241
             1   -5.135443   -1.451781
             2   -4.371486
 pspatm: atomic psp has been read  and splines computed
 
   1.31998181E+04                                ecore*ucvol(ha*bohr**3)
--------------------------------------------------------------------------------
 
_setup2: Arith. and geom. avg. npw (full set) are    5268.875    5268.869
 
================================================================================

--- !BeginCycle
iteration_state: {dtset: 1, }
solver: {iscf: 7, nstep: 100, nline: 4, wfoptalg: 0, }
tolerances: {tolvrs: 1.00E-18, }
...
 
     iter   Etot(hartree)      deltaE(h)  residm     vres2
 ETOT  1  -357.57683652709    -3.576E+02 2.968E-01 1.343E+03
 ETOT  2  -357.47267415243     1.042E-01 1.731E-02 1.643E+03
 ETOT  3  -358.60888725649    -1.136E+00 1.697E-02 4.338E+01
 ETOT  4  -358.63397601088    -2.509E-02 3.943E-03 4.575E-01
 ETOT  5  -358.63420872648    -2.327E-04 2.160E-03 5.936E-02
 ETOT  6  -358.63423741181    -2.869E-05 2.920E-03 1.134E-02
 ETOT  7  -358.63424358193    -6.170E-06 1.324E-03 1.929E-04
 ETOT  8  -358.63424365518    -7.326E-08 1.368E-03 7.633E-05
 ETOT  9  -358.63424369160    -3.641E-08 9.912E-04 1.671E-06
 ETOT 10  -358.63424369223    -6.322E-10 1.015E-03 1.402E-07
 ETOT 11  -358.63424369227    -4.155E-11 6.258E-04 5.738E-09
 ETOT 12  -358.63424369227    -2.217E-12 6.074E-04 6.832E-10
 ETOT 13  -358.63424369227    -9.663E-13 4.694E-04 4.733E-10
 ETOT 14  -358.63424369228    -1.421E-12 5.856E-04 5.290E-12
 ETOT 15  -358.63424369227     2.160E-12 3.324E-04 2.793E-13
 ETOT 16  -358.63424369227    -6.253E-13 7.838E-04 4.530E-14
 ETOT 17  -358.63424369227    -3.979E-13 4.100E-04 2.332E-15
 ETOT 18  -358.63424369227    -1.137E-13 8.257E-04 3.391E-16
 ETOT 19  -358.63424369227     3.411E-13 3.776E-04 2.274E-17
 ETOT 20  -358.63424369228    -1.307E-12 6.341E-04 7.718E-19
 
 At SCF step   20       vres2   =  7.72E-19 < tolvrs=  1.00E-18 =>converged.
 
 Cartesian components of stress tensor (hartree/bohr^3)
  sigma(1 1)= -1.72956071E-04  sigma(3 2)=  0.00000000E+00
  sigma(2 2)= -1.73303606E-04  sigma(3 1)=  1.35468254E-08
  sigma(3 3)= -4.75834512E-04  sigma(2 1)=  0.00000000E+00
 

--- !ResultsGS
iteration_state: {dtset: 1, }
comment   : Summary of ground state results
lattice_vectors:
- [  9.5914335,   0.0000000,   0.0000000, ]
- [  0.0000000,   9.5914335,   0.0000000, ]
- [  0.0000000,   0.0000000,   9.5914335, ]
lattice_lengths: [   9.59143,    9.59143,    9.59143, ]
lattice_angles: [ 90.000,  90.000,  90.000, ] # degrees, (23, 13, 12)
lattice_volume:   8.8236964E+02
convergence: {deltae: -1.307E-12, res2:  7.718E-19, residm:  6.341E-04, diffor: null, }
etotal    :  -3.58634244E+02
entropy   :   0.00000000E+00
fermie    :   2.77118700E-01
cartesian_stress_tensor: # hartree/bohr^3
- [ -1.72956071E-04,   0.00000000E+00,   1.35468254E-08, ]
- [  0.00000000E+00,  -1.73303606E-04,   0.00000000E+00, ]
- [  1.35468254E-08,   0.00000000E+00,  -4.75834512E-04, ]
pressure_GPa:   8.0623E+00
xred      :
- [  0.0000E+00,   5.6254E-04,   0.0000E+00, Hf]
- [  0.0000E+00,   5.0057E-01,   5.0000E-01, Hf]
- [  5.0000E-01,   5.6343E-04,   5.0000E-01, Hf]
- [  5.0000E-01,   5.0056E-01,   0.0000E+00, Hf]
- [  2.4747E-01,   2.4730E-01,   7.0156E-01,  O]
- [  2.4751E-01,   7.4730E-01,   7.9843E-01,  O]
- [  2.5249E-01,   7.4733E-01,   2.9843E-01,  O]
- [  2.5253E-01,   2.4733E-01,   2.0156E-01,  O]
- [  7.5253E-01,   2.4730E-01,   2.9844E-01,  O]
- [  7.5249E-01,   7.4730E-01,   2.0157E-01,  O]
- [  7.4751E-01,   7.4733E-01,   7.0157E-01,  O]
- [  7.4747E-01,   2.4733E-01,   7.9844E-01,  O]
cartesian_forces: # hartree/bohr
- [ -2.82344316E-22,  -3.87497367E-04,  -1.76465197E-23, ]
- [ -2.82344316E-22,  -3.96046129E-04,  -1.76465197E-23, ]
- [ -2.82344316E-22,  -3.90518282E-04,  -1.76465197E-23, ]
- [ -2.82344316E-22,  -3.93297879E-04,  -1.76465197E-23, ]
- [ -1.36160102E-05,   1.87399525E-04,  -4.65953791E-07, ]
- [ -2.53101770E-05,   2.13848172E-04,   3.51911839E-06, ]
- [ -9.13959089E-06,   2.09398749E-04,  -2.52373130E-06, ]
- [ -1.54190645E-05,   1.73033382E-04,  -1.15021967E-06, ]
- [  1.36160102E-05,   1.87399525E-04,   4.65953791E-07, ]
- [  2.53101770E-05,   2.13848172E-04,  -3.51911839E-06, ]
- [  9.13959089E-06,   2.09398749E-04,   2.52373130E-06, ]
- [  1.54190645E-05,   1.73033382E-04,   1.15021967E-06, ]
force_length_stats: {min:   1.73722831E-04, max:   3.96046129E-04, mean:   2.61713265E-04, }
...

 Integrated electronic density in atomic spheres:
 ------------------------------------------------
 Atom  Sphere_radius  Integrated_density
    1        2.00000          8.29081162
    2        2.00000          8.32302185
    3        2.00000          8.32302583
    4        2.00000          8.32324262
    5        2.00000          6.37024650
    6        2.00000          6.37346315
    7        2.00000          6.36593808
    8        2.00000          6.37252566
    9        2.00000          6.37024650
   10        2.00000          6.37346315
   11        2.00000          6.36593808
   12        2.00000          6.37252566
================================================================================
 
 ----iterations are completed or convergence reached----
 
 Mean square residual over all n,k,spin=   90.223E-08; max=  63.411E-05
 reduced coordinates (array xred) for   12 atoms
       0.000000000000      0.000562540000      0.000000000000
       0.000000000000      0.500567210000      0.500000000000
       0.500000000000      0.000563430000      0.500000000000
       0.500000000000      0.500561950000      0.000000000000
       0.247474750000      0.247295940000      0.701562750000
       0.247512140000      0.747295940000      0.798431810000
       0.252487850000      0.747334410000      0.298431820000
       0.252525260000      0.247334410000      0.201562750000
       0.752525250000      0.247295940000      0.298437250000
       0.752487860000      0.747295940000      0.201568190000
       0.747512150000      0.747334410000      0.701568180000
       0.747474740000      0.247334410000      0.798437250000
 rms dE/dt=  1.5381E-03; max dE/dt=  3.7896E-03; dE/dt below (all hartree)
    1       0.000000000000      0.003707654747      0.000000000000
    2       0.000000000000      0.003789649631      0.000000000000
    3       0.000000000000      0.003736629655      0.000000000000
    4       0.000000000000      0.003763289970      0.000000000000
    5       0.000130597057     -0.001806430557      0.000004469165
    6       0.000242760880     -0.002060110996     -0.000033753390
    7       0.000087661778     -0.002017434648      0.000024206201
    8       0.000147890931     -0.001668638655      0.000011032255
    9      -0.000130597057     -0.001806430557     -0.000004469165
   10      -0.000242760880     -0.002060110996      0.000033753390
   11      -0.000087661778     -0.002017434648     -0.000024206201
   12      -0.000147890931     -0.001668638655     -0.000011032255
 
 cartesian coordinates (angstrom) at end:
    1      0.00000000000000     0.00285521002272     0.00000000000000
    2      0.00000000000000     2.54066291292528     2.53778400000000
    3      2.53778400000000     0.00285972727824     2.53778400000000
    4      2.53778400000000     2.54063621543760     0.00000000000000
    5      1.25607492190800     1.25516735959392     3.56082944389200
    6      1.25626469739552     3.79295135959392     4.05249494501808
    7      1.28151925184880     3.79314661669488     1.51471099577376
    8      1.28170912884768     1.25536261669488     1.02304544389200
    9      3.81949307809200     1.25516735959392     1.51473855610800
   10      3.81930330260448     3.79295135959392     1.02307305498192
   11      3.79404874815120     3.79314661669488     3.56085700422624
   12      3.79385887115232     1.25536261669488     4.05252255610800
 
 cartesian forces (hartree/bohr) at end:
    1     -0.00000000000000    -0.00038749736702    -0.00000000000000
    2     -0.00000000000000    -0.00039604612914    -0.00000000000000
    3     -0.00000000000000    -0.00039051828228    -0.00000000000000
    4     -0.00000000000000    -0.00039329787879    -0.00000000000000
    5     -0.00001361601023     0.00018739952511    -0.00000046595379
    6     -0.00002531017704     0.00021384817217     0.00000351911839
    7     -0.00000913959089     0.00020939874890    -0.00000252373130
    8     -0.00001541906445     0.00017303338244    -0.00000115021967
    9      0.00001361601023     0.00018739952511     0.00000046595379
   10      0.00002531017704     0.00021384817217    -0.00000351911839
   11      0.00000913959089     0.00020939874890     0.00000252373130
   12      0.00001541906445     0.00017303338244     0.00000115021967
 frms,max,avg= 1.6036466E-04 3.9604613E-04   0.000E+00  9.384E-07  0.000E+00 h/b
 
 cartesian forces (eV/Angstrom) at end:
    1     -0.00000000000000    -0.01992591409384    -0.00000000000000
    2     -0.00000000000000    -0.02036550907971    -0.00000000000000
    3     -0.00000000000000    -0.02008125578914    -0.00000000000000
    4     -0.00000000000000    -0.02022418837666    -0.00000000000000
    5     -0.00070016333871     0.00963647022250    -0.00002396030527
    6     -0.00130150152326     0.01099651422309     0.00018096032804
    7     -0.00046997662026     0.01076771569813    -0.00012977547031
    8     -0.00079288010670     0.00889773352597    -0.00005914666853
    9      0.00070016333871     0.00963647022250     0.00002396030527
   10      0.00130150152326     0.01099651422309    -0.00018096032804
   11      0.00046997662026     0.01076771569813     0.00012977547031
   12      0.00079288010670     0.00889773352597     0.00005914666853
 frms,max,avg= 8.2462817E-03 2.0365509E-02   0.000E+00  4.825E-05  0.000E+00 e/A
 length scales=  9.591433488838  9.591433488838  9.591433488838 bohr
              =  5.075568000000  5.075568000000  5.075568000000 angstroms
 prteigrs : about to open file o_EIG
 Fermi (or HOMO) energy (hartree) =   0.27712   Average Vxc (hartree)=  -0.44601
 Eigenvalues (hartree) for nkpt= 112  k points:
 kpt#   1, nband= 50, wtk=  0.00463, kpt=  0.0000  0.0000  0.0000 (reduced coord)
  -1.94367   -1.94302   -1.94298   -1.94297   -0.80522   -0.80522   -0.80488   -0.79318
  -0.79311   -0.79280   -0.79273   -0.79147   -0.79146   -0.78860   -0.78697   -0.78697
  -0.39505   -0.33819   -0.32896   -0.32892   -0.31890   -0.31584   -0.31580   -0.29686
   0.06031    0.06032    0.07169    0.09588    0.10259    0.10262    0.16402    0.16429
   0.16650    0.16676    0.17271    0.17272    0.22350    0.22371    0.22824    0.22848
   0.24938    0.24980    0.25524    0.25532    0.25927    0.26626    0.26650    0.27519
   0.44260    0.44527
 prteigrs : prtvol=0 or 1, do not print more k-points.
 

--- !EnergyTerms
iteration_state     : {dtset: 1, }
comment             : Components of total free energy in Hartree
kinetic             :  1.46193125009412E+02
hartree             :  5.59196499381517E+01
xc                  : -9.09042937512398E+01
Ewald energy        : -2.70162684488129E+02
psp_core            :  1.49595106529080E+01
local_psp           : -2.05526698812296E+02
non_local_psp       : -9.11285224108217E+00
total_energy        : -3.58634243692276E+02
total_energy_eV     : -9.75893407045130E+03
band_energy         : -3.10961226055399E+01
...

 
 Cartesian components of stress tensor (hartree/bohr^3)
  sigma(1 1)= -1.72956071E-04  sigma(3 2)=  0.00000000E+00
  sigma(2 2)= -1.73303606E-04  sigma(3 1)=  1.35468254E-08
  sigma(3 3)= -4.75834512E-04  sigma(2 1)=  0.00000000E+00
 
-Cartesian components of stress tensor (GPa)         [Pressure=  8.0623E+00 GPa]
- sigma(1 1)= -5.08854244E+00  sigma(3 2)=  0.00000000E+00
- sigma(2 2)= -5.09876727E+00  sigma(3 1)=  3.98561296E-04
- sigma(3 3)= -1.39995323E+01  sigma(2 1)=  0.00000000E+00
 
== END DATASET(S) ==============================================================
================================================================================
  
 -outvars: echo values of variables after computation  --------
            acell      9.5914334888E+00  9.5914334888E+00  9.5914334888E+00 Bohr
              amu      1.78490000E+02  1.59994000E+01
          chkprim           0
             ecut      2.50000000E+01 Hartree
           ecutsm      5.00000000E-01 Hartree
           etotal     -3.5863424369E+02
            fcart     -2.8234431575E-22 -3.8749736702E-04 -1.7646519734E-23
                      -2.8234431575E-22 -3.9604612914E-04 -1.7646519734E-23
                      -2.8234431575E-22 -3.9051828228E-04 -1.7646519734E-23
                      -2.8234431575E-22 -3.9329787879E-04 -1.7646519734E-23
                      -1.3616010235E-05  1.8739952511E-04 -4.6595379070E-07
                      -2.5310177042E-05  2.1384817217E-04  3.5191183863E-06
                      -9.1395908893E-06  2.0939874890E-04 -2.5237312984E-06
                      -1.5419064454E-05  1.7303338244E-04 -1.1502196695E-06
                       1.3616010235E-05  1.8739952511E-04  4.6595379070E-07
                       2.5310177042E-05  2.1384817217E-04 -3.5191183863E-06
                       9.1395908893E-06  2.0939874890E-04  2.5237312984E-06
                       1.5419064454E-05  1.7303338244E-04  1.1502196695E-06
-          fftalg         512
           istwfk        2    0    0    3    0    0    0    0    0    0
                         0    0    0    0    0    0    6    0    0    7
                         0    0    0    0    0    0    0    0    0    0
                         0    0    0    0    0    0    0    0    0    0
                         0    0    0    0    0    0    0    0    0    0
                       outvar_i_n : Printing only first  50 k-points.
              ixc          11
              kpt      0.00000000E+00  0.00000000E+00  0.00000000E+00
                       1.66666667E-01  0.00000000E+00  0.00000000E+00
                       3.33333333E-01  0.00000000E+00  0.00000000E+00
                       5.00000000E-01  0.00000000E+00  0.00000000E+00
                       0.00000000E+00  1.66666667E-01  0.00000000E+00
                       1.66666667E-01  1.66666667E-01  0.00000000E+00
                       3.33333333E-01  1.66666667E-01  0.00000000E+00
                       5.00000000E-01  1.66666667E-01  0.00000000E+00
                      -3.33333333E-01  1.66666667E-01  0.00000000E+00
                      -1.66666667E-01  1.66666667E-01  0.00000000E+00
                       0.00000000E+00  3.33333333E-01  0.00000000E+00
                       1.66666667E-01  3.33333333E-01  0.00000000E+00
                       3.33333333E-01  3.33333333E-01  0.00000000E+00
                       5.00000000E-01  3.33333333E-01  0.00000000E+00
                      -3.33333333E-01  3.33333333E-01  0.00000000E+00
                      -1.66666667E-01  3.33333333E-01  0.00000000E+00
                       0.00000000E+00  5.00000000E-01  0.00000000E+00
                       1.66666667E-01  5.00000000E-01  0.00000000E+00
                       3.33333333E-01  5.00000000E-01  0.00000000E+00
                       5.00000000E-01  5.00000000E-01  0.00000000E+00
                       0.00000000E+00  0.00000000E+00  1.66666667E-01
                       1.66666667E-01  0.00000000E+00  1.66666667E-01
                       3.33333333E-01  0.00000000E+00  1.66666667E-01
                       5.00000000E-01  0.00000000E+00  1.66666667E-01
                      -3.33333333E-01  0.00000000E+00  1.66666667E-01
                      -1.66666667E-01  0.00000000E+00  1.66666667E-01
                       0.00000000E+00  1.66666667E-01  1.66666667E-01
                       1.66666667E-01  1.66666667E-01  1.66666667E-01
                       3.33333333E-01  1.66666667E-01  1.66666667E-01
                       5.00000000E-01  1.66666667E-01  1.66666667E-01
                      -3.33333333E-01  1.66666667E-01  1.66666667E-01
                      -1.66666667E-01  1.66666667E-01  1.66666667E-01
                       0.00000000E+00  3.33333333E-01  1.66666667E-01
                       1.66666667E-01  3.33333333E-01  1.66666667E-01
                       3.33333333E-01  3.33333333E-01  1.66666667E-01
                       5.00000000E-01  3.33333333E-01  1.66666667E-01
                      -3.33333333E-01  3.33333333E-01  1.66666667E-01
                      -1.66666667E-01  3.33333333E-01  1.66666667E-01
                       0.00000000E+00  5.00000000E-01  1.66666667E-01
                       1.66666667E-01  5.00000000E-01  1.66666667E-01
                       3.33333333E-01  5.00000000E-01  1.66666667E-01
                       5.00000000E-01  5.00000000E-01  1.66666667E-01
                      -3.33333333E-01  5.00000000E-01  1.66666667E-01
                      -1.66666667E-01  5.00000000E-01  1.66666667E-01
                       0.00000000E+00 -3.33333333E-01  1.66666667E-01
                       1.66666667E-01 -3.33333333E-01  1.66666667E-01
                       3.33333333E-01 -3.33333333E-01  1.66666667E-01
                       5.00000000E-01 -3.33333333E-01  1.66666667E-01
                      -3.33333333E-01 -3.33333333E-01  1.66666667E-01
                      -1.66666667E-01 -3.33333333E-01  1.66666667E-01
                       outvar_i_n : Printing only first  50 k-points.
           kptopt           2
         kptrlatt        6    0    0      0    6    0      0    0    6
          kptrlen      5.75486009E+01
P           mkmem           4
            natom          12
            nband          50
            ngfft          45      45      45
             nkpt         112
            nstep         100
             nsym           2
           ntypat           2
              occ      2.000000  2.000000  2.000000  2.000000  2.000000  2.000000
                       2.000000  2.000000  2.000000  2.000000  2.000000  2.000000
                       2.000000  2.000000  2.000000  2.000000  2.000000  2.000000
                       2.000000  2.000000  2.000000  2.000000  2.000000  2.000000
                       2.000000  2.000000  2.000000  2.000000  2.000000  2.000000
                       2.000000  2.000000  2.000000  2.000000  2.000000  2.000000
                       2.000000  2.000000  2.000000  2.000000  2.000000  2.000000
                       2.000000  2.000000  2.000000  2.000000  2.000000  2.000000
                       0.000000  0.000000
        pawecutdg      2.50000000E+01 Hartree
         pawxcdev           0
          spgroup           3
           strten     -1.7295607135E-04 -1.7330360626E-04 -4.7583451235E-04
                       0.0000000000E+00  1.3546825391E-08  0.0000000000E+00
        symmorphi           0
           symrel      1  0  0   0  1  0   0  0  1      -1  0  0   0  1  0   0  0 -1
           tolmxf      1.00000000E-05
           tolvrs      1.00000000E-18
           tsmear      4.00000000E-02 Hartree
            typat      1  1  1  1  2  2  2  2  2  2  2  2
              wtk        0.00463    0.00926    0.00926    0.00463    0.00926    0.00926
                         0.00926    0.00926    0.00926    0.00926    0.00926    0.00926
                         0.00926    0.00926    0.00926    0.00926    0.00463    0.00926
                         0.00926    0.00463    0.00926    0.00926    0.00926    0.00926
                         0.00926    0.00926    0.00926    0.00926    0.00926    0.00926
                         0.00926    0.00926    0.00926    0.00926    0.00926    0.00926
                         0.00926    0.00926    0.00926    0.00926    0.00926    0.00926
                         0.00926    0.00926    0.00926    0.00926    0.00926    0.00926
                         0.00926    0.00926
                       outvars : Printing only first  50 k-points.
           xangst      0.0000000000E+00  2.8552100227E-03  0.0000000000E+00
                       0.0000000000E+00  2.5406629129E+00  2.5377840000E+00
                       2.5377840000E+00  2.8597272782E-03  2.5377840000E+00
                       2.5377840000E+00  2.5406362154E+00  0.0000000000E+00
                       1.2560749219E+00  1.2551673596E+00  3.5608294439E+00
                       1.2562646974E+00  3.7929513596E+00  4.0524949450E+00
                       1.2815192518E+00  3.7931466167E+00  1.5147109958E+00
                       1.2817091288E+00  1.2553626167E+00  1.0230454439E+00
                       3.8194930781E+00  1.2551673596E+00  1.5147385561E+00
                       3.8193033026E+00  3.7929513596E+00  1.0230730550E+00
                       3.7940487482E+00  3.7931466167E+00  3.5608570042E+00
                       3.7938588712E+00  1.2553626167E+00  4.0525225561E+00
            xcart      0.0000000000E+00  5.3955649948E-03  0.0000000000E+00
                       0.0000000000E+00  4.8011571014E+00  4.7957167444E+00
                       4.7957167444E+00  5.4041013706E-03  4.7957167444E+00
                       4.7957167444E+00  4.8011066505E+00  0.0000000000E+00
                       2.3736376048E+00  2.3719225606E+00  6.7289924549E+00
                       2.3739962285E+00  7.1676393050E+00  7.6581056010E+00
                       2.4217204200E+00  7.1680082874E+00  2.8623889525E+00
                       2.4220792355E+00  2.3722915430E+00  1.9332757105E+00
                       7.2177958840E+00  2.3719225606E+00  2.8624410340E+00
                       7.2174372603E+00  7.1676393050E+00  1.9333278879E+00
                       7.1697130688E+00  7.1680082874E+00  6.7290445364E+00
                       7.1693542533E+00  2.3722915430E+00  7.6581577784E+00
             xred      0.0000000000E+00  5.6254000000E-04  0.0000000000E+00
                       0.0000000000E+00  5.0056721000E-01  5.0000000000E-01
                       5.0000000000E-01  5.6343000000E-04  5.0000000000E-01
                       5.0000000000E-01  5.0056195000E-01  0.0000000000E+00
                       2.4747475000E-01  2.4729594000E-01  7.0156275000E-01
                       2.4751214000E-01  7.4729594000E-01  7.9843181000E-01
                       2.5248785000E-01  7.4733441000E-01  2.9843182000E-01
                       2.5252526000E-01  2.4733441000E-01  2.0156275000E-01
                       7.5252525000E-01  2.4729594000E-01  2.9843725000E-01
                       7.5248786000E-01  7.4729594000E-01  2.0156819000E-01
                       7.4751215000E-01  7.4733441000E-01  7.0156818000E-01
                       7.4747474000E-01  2.4733441000E-01  7.9843725000E-01
            znucl       72.00000    8.00000
 
================================================================================


- Timing analysis has been suppressed with timopt=0



================================================================================

 Suggested references for the acknowledgment of ABINIT usage.

 The users of ABINIT have little formal obligations with respect to the ABINIT group
 (those specified in the GNU General Public License, http://www.gnu.org/copyleft/gpl.txt).
 However, it is common practice in the scientific literature,
 to acknowledge the efforts of people that have made the research possible.
 In this spirit, please find below suggested citations of work written by ABINIT developers,
 corresponding to implementations inside of ABINIT that you have used in the present run.
 Note also that it will be of great value to readers of publications presenting these results,
 to read papers enabling them to understand the theoretical formalism and details
 of the ABINIT implementation.
 For information on why they are suggested, see also https://docs.abinit.org/theory/acknowledgments.
-
- [1] Specification of an extensible and portable file format for electronic structure and crystallographic data
- X. Gonze, C.-O. Almbladh, A. Cucca, D. Caliste, C. Freysoldt, M. Marques, V. Olevano, Y. Pouillon, M.J. Verstraete,
- Comput. Material Science 43, 1056 (2008).
- Comment: to be cited in case the ETSF_IO file format is used, i.e. iomode=3.
- DOI and bibtex: see https://docs.abinit.org/theory/bibliography/#gonze2008
-
- [2] The Abinit project: Impact, environment and recent developments.
- Computer Phys. Comm. 248, 107042 (2020).
- X.Gonze, B. Amadon, G. Antonius, F.Arnardi, L.Baguet, J.-M.Beuken,
- J.Bieder, F.Bottin, J.Bouchet, E.Bousquet, N.Brouwer, F.Bruneval,
- G.Brunin, T.Cavignac, J.-B. Charraud, Wei Chen, M.Cote, S.Cottenier,
- J.Denier, G.Geneste, Ph.Ghosez, M.Giantomassi, Y.Gillet, O.Gingras,
- D.R.Hamann, G.Hautier, Xu He, N.Helbig, N.Holzwarth, Y.Jia, F.Jollet,
- W.Lafargue-Dit-Hauret, K.Lejaeghere, M.A.L.Marques, A.Martin, C.Martins,
- H.P.C. Miranda, F.Naccarato, K. Persson, G.Petretto, V.Planes, Y.Pouillon,
- S.Prokhorenko, F.Ricci, G.-M.Rignanese, A.H.Romero, M.M.Schmitt, M.Torrent,
- M.J.van Setten, B.Van Troeye, M.J.Verstraete, G.Zerah and J.W.Zwanzig
- Comment: the fifth generic paper describing the ABINIT project.
- Note that a version of this paper, that is not formatted for Computer Phys. Comm. 
- is available at https://www.abinit.org/sites/default/files/ABINIT20.pdf .
- The licence allows the authors to put it on the Web.
- DOI and bibtex: see https://docs.abinit.org/theory/bibliography/#gonze2020
-
- [3] Optimized norm-conserving Vanderbilt pseudopotentials.
- D.R. Hamann, Phys. Rev. B 88, 085117 (2013).
- Comment: Some pseudopotential generated using the ONCVPSP code were used.
- DOI and bibtex: see https://docs.abinit.org/theory/bibliography/#hamann2013
-
- [4] ABINIT: Overview, and focus on selected capabilities
- J. Chem. Phys. 152, 124102 (2020).
- A. Romero, D.C. Allan, B. Amadon, G. Antonius, T. Applencourt, L.Baguet,
- J.Bieder, F.Bottin, J.Bouchet, E.Bousquet, F.Bruneval,
- G.Brunin, D.Caliste, M.Cote,
- J.Denier, C. Dreyer, Ph.Ghosez, M.Giantomassi, Y.Gillet, O.Gingras,
- D.R.Hamann, G.Hautier, F.Jollet, G. Jomard,
- A.Martin, 
- H.P.C. Miranda, F.Naccarato, G.Petretto, N.A. Pike, V.Planes,
- S.Prokhorenko, T. Rangel, F.Ricci, G.-M.Rignanese, M.Royo, M.Stengel, M.Torrent,
- M.J.van Setten, B.Van Troeye, M.J.Verstraete, J.Wiktor, J.W.Zwanziger, and X.Gonze.
- Comment: a global overview of ABINIT, with focus on selected capabilities .
- Note that a version of this paper, that is not formatted for J. Chem. Phys 
- is available at https://www.abinit.org/sites/default/files/ABINIT20_JPC.pdf .
- The licence allows the authors to put it on the Web.
- DOI and bibtex: see https://docs.abinit.org/theory/bibliography/#romero2020
-
- [5] Recent developments in the ABINIT software package.
- Computer Phys. Comm. 205, 106 (2016).
- X.Gonze, F.Jollet, F.Abreu Araujo, D.Adams, B.Amadon, T.Applencourt,
- C.Audouze, J.-M.Beuken, J.Bieder, A.Bokhanchuk, E.Bousquet, F.Bruneval
- D.Caliste, M.Cote, F.Dahm, F.Da Pieve, M.Delaveau, M.Di Gennaro,
- B.Dorado, C.Espejo, G.Geneste, L.Genovese, A.Gerossier, M.Giantomassi,
- Y.Gillet, D.R.Hamann, L.He, G.Jomard, J.Laflamme Janssen, S.Le Roux,
- A.Levitt, A.Lherbier, F.Liu, I.Lukacevic, A.Martin, C.Martins,
- M.J.T.Oliveira, S.Ponce, Y.Pouillon, T.Rangel, G.-M.Rignanese,
- A.H.Romero, B.Rousseau, O.Rubel, A.A.Shukri, M.Stankovski, M.Torrent,
- M.J.Van Setten, B.Van Troeye, M.J.Verstraete, D.Waroquier, J.Wiktor,
- B.Xu, A.Zhou, J.W.Zwanziger.
- Comment: the fourth generic paper describing the ABINIT project.
- Note that a version of this paper, that is not formatted for Computer Phys. Comm. 
- is available at https://www.abinit.org/sites/default/files/ABINIT16.pdf .
- The licence allows the authors to put it on the Web.
- DOI and bibtex: see https://docs.abinit.org/theory/bibliography/#gonze2016
-
- Proc.   0 individual time (sec): cpu=        111.9  wall=        115.4
 
================================================================================
 
 Calculation completed.
.Delivered   0 WARNINGs and   0 COMMENTs to log file.
+Overall time at end (sec) : cpu=       4092.3  wall=       4154.0
