
.Version 9.4.1 of ABINIT 
.(MPI version, prepared for a x86_64_linux_intel19.0 computer) 

.Copyright (C) 1998-2021 ABINIT group . 
 ABINIT comes with ABSOLUTELY NO WARRANTY.
 It is free software, and you are welcome to redistribute it
 under certain conditions (GNU General Public License,
 see ~abinit/COPYING or http://www.gnu.org/copyleft/gpl.txt).

 ABINIT is a project of the Universite Catholique de Louvain,
 Corning Inc. and other collaborators, see ~abinit/doc/developers/contributors.txt .
 Please read https://docs.abinit.org/theory/acknowledgments for suggested
 acknowledgments of the ABINIT effort.
 For more information, see https://www.abinit.org .

.Starting date : Sat  3 Jul 2021.
- ( at 08h01 )
  
- input  file    -> PATH10
- output file    -> PATH10.abo
- root for input  files -> i
- root for output files -> o
 
 
 Symmetries : space group Pn c 2 (# 30); Bravais oP (primitive ortho.)
================================================================================
 Values of the parameters that define the memory need of the present run
     intxc =       0    ionmov =       0      iscf =       7    lmnmax =       8
     lnmax =       8     mgfft =      45  mpssoang =       4    mqgrid =    3001
     natom =      12  nloc_mem =       1    nspden =       1   nspinor =       1
    nsppol =       1      nsym =       2    n1xccc =    2501    ntypat =       2
    occopt =       1   xclevel =       2
-    mband =          50        mffmem =           1         mkmem =           4
       mpw =        5280          nfft =       91125          nkpt =         112
================================================================================
P This job should need less than                      47.640 Mbytes of memory.
  Rough estimation (10% accuracy) of disk space for files :
_ WF disk file :    451.174 Mbytes ; DEN or POT disk file :      0.697 Mbytes.
================================================================================
 
--------------------------------------------------------------------------------
------------- Echo of variables that govern the present computation ------------
--------------------------------------------------------------------------------
-
- outvars: echo of selected default values                                      
-   iomode0 =  3 , fftalg0 =512 , wfoptalg0 =  0
-
- outvars: echo of global parameters not present in the input file              
-  max_nthreads =    0
-
 -outvars: echo values of preprocessed input variables --------
            acell      9.5914334888E+00  9.5914334888E+00  9.5914334888E+00 Bohr
              amu      1.78490000E+02  1.59994000E+01
          chkprim           0
             ecut      2.50000000E+01 Hartree
           ecutsm      5.00000000E-01 Hartree
-          fftalg         512
           istwfk        2    0    0    3    0    0    0    0    0    0
                         0    0    0    0    0    0    6    0    0    7
                         0    0    0    0    0    0    0    0    0    0
                         0    0    0    0    0    0    0    0    0    0
                         0    0    0    0    0    0    0    0    0    0
                       outvar_i_n : Printing only first  50 k-points.
              ixc          11
              kpt      0.00000000E+00  0.00000000E+00  0.00000000E+00
                       1.66666667E-01  0.00000000E+00  0.00000000E+00
                       3.33333333E-01  0.00000000E+00  0.00000000E+00
                       5.00000000E-01  0.00000000E+00  0.00000000E+00
                       0.00000000E+00  1.66666667E-01  0.00000000E+00
                       1.66666667E-01  1.66666667E-01  0.00000000E+00
                       3.33333333E-01  1.66666667E-01  0.00000000E+00
                       5.00000000E-01  1.66666667E-01  0.00000000E+00
                      -3.33333333E-01  1.66666667E-01  0.00000000E+00
                      -1.66666667E-01  1.66666667E-01  0.00000000E+00
                       0.00000000E+00  3.33333333E-01  0.00000000E+00
                       1.66666667E-01  3.33333333E-01  0.00000000E+00
                       3.33333333E-01  3.33333333E-01  0.00000000E+00
                       5.00000000E-01  3.33333333E-01  0.00000000E+00
                      -3.33333333E-01  3.33333333E-01  0.00000000E+00
                      -1.66666667E-01  3.33333333E-01  0.00000000E+00
                       0.00000000E+00  5.00000000E-01  0.00000000E+00
                       1.66666667E-01  5.00000000E-01  0.00000000E+00
                       3.33333333E-01  5.00000000E-01  0.00000000E+00
                       5.00000000E-01  5.00000000E-01  0.00000000E+00
                       0.00000000E+00  0.00000000E+00  1.66666667E-01
                       1.66666667E-01  0.00000000E+00  1.66666667E-01
                       3.33333333E-01  0.00000000E+00  1.66666667E-01
                       5.00000000E-01  0.00000000E+00  1.66666667E-01
                      -3.33333333E-01  0.00000000E+00  1.66666667E-01
                      -1.66666667E-01  0.00000000E+00  1.66666667E-01
                       0.00000000E+00  1.66666667E-01  1.66666667E-01
                       1.66666667E-01  1.66666667E-01  1.66666667E-01
                       3.33333333E-01  1.66666667E-01  1.66666667E-01
                       5.00000000E-01  1.66666667E-01  1.66666667E-01
                      -3.33333333E-01  1.66666667E-01  1.66666667E-01
                      -1.66666667E-01  1.66666667E-01  1.66666667E-01
                       0.00000000E+00  3.33333333E-01  1.66666667E-01
                       1.66666667E-01  3.33333333E-01  1.66666667E-01
                       3.33333333E-01  3.33333333E-01  1.66666667E-01
                       5.00000000E-01  3.33333333E-01  1.66666667E-01
                      -3.33333333E-01  3.33333333E-01  1.66666667E-01
                      -1.66666667E-01  3.33333333E-01  1.66666667E-01
                       0.00000000E+00  5.00000000E-01  1.66666667E-01
                       1.66666667E-01  5.00000000E-01  1.66666667E-01
                       3.33333333E-01  5.00000000E-01  1.66666667E-01
                       5.00000000E-01  5.00000000E-01  1.66666667E-01
                      -3.33333333E-01  5.00000000E-01  1.66666667E-01
                      -1.66666667E-01  5.00000000E-01  1.66666667E-01
                       0.00000000E+00 -3.33333333E-01  1.66666667E-01
                       1.66666667E-01 -3.33333333E-01  1.66666667E-01
                       3.33333333E-01 -3.33333333E-01  1.66666667E-01
                       5.00000000E-01 -3.33333333E-01  1.66666667E-01
                      -3.33333333E-01 -3.33333333E-01  1.66666667E-01
                      -1.66666667E-01 -3.33333333E-01  1.66666667E-01
                       outvar_i_n : Printing only first  50 k-points.
           kptopt           2
         kptrlatt        6    0    0      0    6    0      0    0    6
          kptrlen      5.75486009E+01
P           mkmem           4
            natom          12
            nband          50
            ngfft          45      45      45
             nkpt         112
            nstep         100
             nsym           2
           ntypat           2
              occ      2.000000  2.000000  2.000000  2.000000  2.000000  2.000000
                       2.000000  2.000000  2.000000  2.000000  2.000000  2.000000
                       2.000000  2.000000  2.000000  2.000000  2.000000  2.000000
                       2.000000  2.000000  2.000000  2.000000  2.000000  2.000000
                       2.000000  2.000000  2.000000  2.000000  2.000000  2.000000
                       2.000000  2.000000  2.000000  2.000000  2.000000  2.000000
                       2.000000  2.000000  2.000000  2.000000  2.000000  2.000000
                       2.000000  2.000000  2.000000  2.000000  2.000000  2.000000
                       0.000000  0.000000
        pawecutdg      2.50000000E+01 Hartree
         pawxcdev           0
          spgroup          30
        symmorphi           0
           symrel      1  0  0   0  1  0   0  0  1      -1  0  0   0  1  0   0  0 -1
           tolmxf      1.00000000E-05
           tolvrs      1.00000000E-18
           tsmear      4.00000000E-02 Hartree
            typat      1  1  1  1  2  2  2  2  2  2  2  2
              wtk        0.00463    0.00926    0.00926    0.00463    0.00926    0.00926
                         0.00926    0.00926    0.00926    0.00926    0.00926    0.00926
                         0.00926    0.00926    0.00926    0.00926    0.00463    0.00926
                         0.00926    0.00463    0.00926    0.00926    0.00926    0.00926
                         0.00926    0.00926    0.00926    0.00926    0.00926    0.00926
                         0.00926    0.00926    0.00926    0.00926    0.00926    0.00926
                         0.00926    0.00926    0.00926    0.00926    0.00926    0.00926
                         0.00926    0.00926    0.00926    0.00926    0.00926    0.00926
                         0.00926    0.00926
                       outvars : Printing only first  50 k-points.
           xangst      0.0000000000E+00 -3.6544089603E-06  0.0000000000E+00
                       0.0000000000E+00  2.5377803456E+00  2.5377840000E+00
                       2.5377840000E+00  3.6290311201E-06  2.5377840000E+00
                       2.5377840000E+00  2.5377876290E+00  0.0000000000E+00
                       1.2052753382E+00  1.2688513447E+00  3.5529117608E+00
                       1.2052753382E+00  3.8066353447E+00  4.0604402392E+00
                       1.3325086618E+00  3.8067166553E+00  1.5226570766E+00
                       1.3325086618E+00  1.2689326553E+00  1.0151269234E+00
                       3.8702926618E+00  1.2688513447E+00  1.5226562392E+00
                       3.8702926618E+00  3.8066353447E+00  1.0151277608E+00
                       3.7430593382E+00  3.8067166553E+00  3.5529109234E+00
                       3.7430593382E+00  1.2689326553E+00  4.0604410766E+00
            xcart      0.0000000000E+00 -6.9058321126E-06  0.0000000000E+00
                       0.0000000000E+00  4.7957098386E+00  4.7957167444E+00
                       4.7957167444E+00  6.8578749447E-06  4.7957167444E+00
                       4.7957167444E+00  4.7957236023E+00  0.0000000000E+00
                       2.2776403040E+00  2.3977815448E+00  6.7140302023E+00
                       2.2776403040E+00  7.1934982892E+00  7.6731200310E+00
                       2.5180764404E+00  7.1936519440E+00  2.8774048691E+00
                       2.5180764404E+00  2.3979351996E+00  1.9183118753E+00
                       7.3137931848E+00  2.3977815448E+00  2.8774032866E+00
                       7.3137931848E+00  7.1934982892E+00  1.9183134579E+00
                       7.0733570484E+00  7.1936519440E+00  6.7140286197E+00
                       7.0733570484E+00  2.3979351996E+00  7.6731216136E+00
             xred      0.0000000000E+00 -7.2000000007E-07  0.0000000000E+00
                       0.0000000000E+00  4.9999928000E-01  5.0000000000E-01
                       5.0000000000E-01  7.1500000002E-07  5.0000000000E-01
                       5.0000000000E-01  5.0000071500E-01  0.0000000000E+00
                       2.3746610000E-01  2.4999199000E-01  7.0000279000E-01
                       2.3746610000E-01  7.4999199000E-01  7.9999721000E-01
                       2.6253390000E-01  7.5000801000E-01  2.9999737500E-01
                       2.6253390000E-01  2.5000801000E-01  2.0000262500E-01
                       7.6253390000E-01  2.4999199000E-01  2.9999721000E-01
                       7.6253390000E-01  7.4999199000E-01  2.0000279000E-01
                       7.3746610000E-01  7.5000801000E-01  7.0000262500E-01
                       7.3746610000E-01  2.5000801000E-01  7.9999737500E-01
            znucl       72.00000    8.00000
 
================================================================================
 
 chkinp: Checking input parameters for consistency.
 
================================================================================
== DATASET  1 ==================================================================
-   mpi_nproc: 36, omp_nthreads: -1 (-1 if OMP is not activated)
-    --> not optimal distribution: autoparal keyword recommended in input file <--
 

--- !DatasetInfo
iteration_state: {dtset: 1, }
dimensions: {natom: 12, nkpt: 112, mband: 50, nsppol: 1, nspinor: 1, nspden: 1, mpw: 5280, }
cutoff_energies: {ecut:  25.0, pawecutdg:  25.0, }
electrons: {nelect:   9.60000000E+01, charge:   0.00000000E+00, occopt:   1.00000000E+00, tsmear:   4.00000000E-02, }
meta: {optdriver: 0, ionmov: 0, optcell: 0, iscf: 7, paral_kgb: 0, }
...

 Exchange-correlation functional for the present dataset will be:
  GGA: Perdew-Burke-Ernzerhof functional - ixc=11
 Citation for XC functional:
  J.P.Perdew, K.Burke, M.Ernzerhof, PRL 77, 3865 (1996)
 
 Real(R)+Recip(G) space primitive vectors, cartesian coordinates (Bohr,Bohr^-1):
 R(1)=  9.5914335  0.0000000  0.0000000  G(1)=  0.1042597  0.0000000  0.0000000
 R(2)=  0.0000000  9.5914335  0.0000000  G(2)=  0.0000000  0.1042597  0.0000000
 R(3)=  0.0000000  0.0000000  9.5914335  G(3)=  0.0000000  0.0000000  0.1042597
 Unit cell volume ucvol=  8.8236964E+02 bohr^3
 Angles (23,13,12)=  9.00000000E+01  9.00000000E+01  9.00000000E+01 degrees
 
 getcut: wavevector=  0.0000  0.0000  0.0000  ngfft=  45  45  45
         ecut(hartree)=     25.000   => boxcut(ratio)=   2.03814
 
--- Pseudopotential description ------------------------------------------------
- pspini: atom type   1  psp file is /workspace/jiahaoz/PACKAGE_INSTALL/abinit-9.4.1/pbe_s_sr/Hf.psp8
- pspatm: opening atomic psp file    /workspace/jiahaoz/PACKAGE_INSTALL/abinit-9.4.1/pbe_s_sr/Hf.psp8
- Hf    ONCVPSP  r_core=  1.72  1.72  1.72  2.43
- 72.00000  12.00000    160625                znucl, zion, pspdat
    8   11    3    4       600   0.00000      pspcod,pspxc,lmax,lloc,mmax,r2well
    5.99000000000000    5.40000000000000    0.00000000000000   rchrg,fchrg,qchrg
     nproj     2     2     2     2
     extension_switch     1
  pspatm : epsatm=   21.98649506
         --- l  ekb(1:nproj) -->
             0    5.812335   -0.521211
             1   -3.038329    2.466565
             2    2.060039    0.471534
             3    9.947446    0.353012
 pspatm: atomic psp has been read  and splines computed
 
- pspini: atom type   2  psp file is /workspace/jiahaoz/PACKAGE_INSTALL/abinit-9.4.1/pbe_s_sr/O.psp8
- pspatm: opening atomic psp file    /workspace/jiahaoz/PACKAGE_INSTALL/abinit-9.4.1/pbe_s_sr/O.psp8
- O     ONCVPSP  r_core=  1.36  1.46  1.26
-  8.00000   6.00000    151103                znucl, zion, pspdat
    8   11    2    4       600   0.00000      pspcod,pspxc,lmax,lloc,mmax,r2well
    5.99000000000000    4.00000000000000    0.00000000000000   rchrg,fchrg,qchrg
     nproj     2     2     1
     extension_switch     1
  pspatm : epsatm=    6.19401560
         --- l  ekb(1:nproj) -->
             0    5.257212    0.704241
             1   -5.135443   -1.451781
             2   -4.371486
 pspatm: atomic psp has been read  and splines computed
 
   1.31998181E+04                                ecore*ucvol(ha*bohr**3)
--------------------------------------------------------------------------------
 
_setup2: Arith. and geom. avg. npw (full set) are    5268.875    5268.869
 
================================================================================

--- !BeginCycle
iteration_state: {dtset: 1, }
solver: {iscf: 7, nstep: 100, nline: 4, wfoptalg: 0, }
tolerances: {tolvrs: 1.00E-18, }
...
 
     iter   Etot(hartree)      deltaE(h)  residm     vres2
 ETOT  1  -357.57406884942    -3.576E+02 3.224E-01 1.339E+03
 ETOT  2  -357.46958232975     1.045E-01 1.397E-02 1.641E+03
 ETOT  3  -358.60530621653    -1.136E+00 8.682E-03 4.257E+01
 ETOT  4  -358.62993987509    -2.463E-02 7.759E-03 5.274E-01
 ETOT  5  -358.63020713150    -2.673E-04 2.620E-03 6.583E-02
 ETOT  6  -358.63023883736    -3.171E-05 2.817E-03 1.088E-02
 ETOT  7  -358.63024477413    -5.937E-06 1.814E-03 1.924E-04
 ETOT  8  -358.63024482573    -5.160E-08 1.406E-03 1.046E-04
 ETOT  9  -358.63024487673    -5.100E-08 8.322E-04 2.281E-06
 ETOT 10  -358.63024487774    -1.003E-09 8.835E-04 1.704E-07
 ETOT 11  -358.63024487779    -5.400E-11 5.393E-04 9.320E-09
 ETOT 12  -358.63024487779    -2.615E-12 7.998E-04 2.422E-09
 ETOT 13  -358.63024487779    -1.080E-12 5.277E-04 4.894E-10
 ETOT 14  -358.63024487779     3.411E-13 5.768E-04 3.289E-12
 ETOT 15  -358.63024487780    -1.933E-12 3.796E-04 2.131E-13
 ETOT 16  -358.63024487779     2.103E-12 4.546E-04 5.344E-14
 ETOT 17  -358.63024487779    -6.253E-13 1.665E-04 1.099E-15
 ETOT 18  -358.63024487779     1.251E-12 3.775E-04 1.818E-16
 ETOT 19  -358.63024487779     6.253E-13 1.451E-04 3.838E-17
 ETOT 20  -358.63024487779    -1.137E-12 2.787E-04 6.759E-18
 ETOT 21  -358.63024487779     4.547E-13 1.390E-04 3.771E-19
 
 At SCF step   21       vres2   =  3.77E-19 < tolvrs=  1.00E-18 =>converged.
 
 Cartesian components of stress tensor (hartree/bohr^3)
  sigma(1 1)= -1.98688292E-04  sigma(3 2)=  0.00000000E+00
  sigma(2 2)= -2.11230402E-04  sigma(3 1)= -9.43830813E-09
  sigma(3 3)= -5.04417684E-04  sigma(2 1)=  0.00000000E+00
 

--- !ResultsGS
iteration_state: {dtset: 1, }
comment   : Summary of ground state results
lattice_vectors:
- [  9.5914335,   0.0000000,   0.0000000, ]
- [  0.0000000,   9.5914335,   0.0000000, ]
- [  0.0000000,   0.0000000,   9.5914335, ]
lattice_lengths: [   9.59143,    9.59143,    9.59143, ]
lattice_angles: [ 90.000,  90.000,  90.000, ] # degrees, (23, 13, 12)
lattice_volume:   8.8236964E+02
convergence: {deltae:  4.547E-13, res2:  3.771E-19, residm:  1.390E-04, diffor: null, }
etotal    :  -3.58630245E+02
entropy   :   0.00000000E+00
fermie    :   2.76425895E-01
cartesian_stress_tensor: # hartree/bohr^3
- [ -1.98688292E-04,   0.00000000E+00,  -9.43830813E-09, ]
- [  0.00000000E+00,  -2.11230402E-04,   0.00000000E+00, ]
- [ -9.43830813E-09,   0.00000000E+00,  -5.04417684E-04, ]
pressure_GPa:   8.9669E+00
xred      :
- [  0.0000E+00,  -7.2000E-07,   0.0000E+00, Hf]
- [  0.0000E+00,   5.0000E-01,   5.0000E-01, Hf]
- [  5.0000E-01,   7.1500E-07,   5.0000E-01, Hf]
- [  5.0000E-01,   5.0000E-01,   0.0000E+00, Hf]
- [  2.3747E-01,   2.4999E-01,   7.0000E-01,  O]
- [  2.3747E-01,   7.4999E-01,   8.0000E-01,  O]
- [  2.6253E-01,   7.5001E-01,   3.0000E-01,  O]
- [  2.6253E-01,   2.5001E-01,   2.0000E-01,  O]
- [  7.6253E-01,   2.4999E-01,   3.0000E-01,  O]
- [  7.6253E-01,   7.4999E-01,   2.0000E-01,  O]
- [  7.3747E-01,   7.5001E-01,   7.0000E-01,  O]
- [  7.3747E-01,   2.5001E-01,   8.0000E-01,  O]
cartesian_forces: # hartree/bohr
- [  2.89120579E-19,   1.30563940E-02,   0.00000000E+00, ]
- [  2.89120579E-19,   1.30579664E-02,   0.00000000E+00, ]
- [  2.89120579E-19,   1.30631031E-02,   0.00000000E+00, ]
- [  2.89120579E-19,   1.30616687E-02,   0.00000000E+00, ]
- [  8.31113047E-03,  -6.53433719E-03,   1.37978216E-03, ]
- [  8.30882849E-03,  -6.52292877E-03,  -1.37099357E-03, ]
- [ -8.31357551E-03,  -6.52717540E-03,  -1.38293900E-03, ]
- [ -8.31687722E-03,  -6.53512469E-03,   1.37427743E-03, ]
- [ -8.31113047E-03,  -6.53433719E-03,  -1.37978216E-03, ]
- [ -8.30882849E-03,  -6.52292877E-03,   1.37099357E-03, ]
- [  8.31357551E-03,  -6.52717540E-03,   1.38293900E-03, ]
- [  8.31687722E-03,  -6.53512469E-03,  -1.37427743E-03, ]
force_length_stats: {min:   1.06519883E-02, max:   1.30631031E-02, mean:   1.14599090E-02, }
...

 Integrated electronic density in atomic spheres:
 ------------------------------------------------
 Atom  Sphere_radius  Integrated_density
    1        2.00000          8.30550355
    2        2.00000          8.32897529
    3        2.00000          8.32901133
    4        2.00000          8.32912262
    5        2.00000          6.36979955
    6        2.00000          6.37585453
    7        2.00000          6.37522918
    8        2.00000          6.37728386
    9        2.00000          6.36979955
   10        2.00000          6.37585453
   11        2.00000          6.37522918
   12        2.00000          6.37728386
================================================================================
 
 ----iterations are completed or convergence reached----
 
 Mean square residual over all n,k,spin=   31.743E-08; max=  13.895E-05
 reduced coordinates (array xred) for   12 atoms
       0.000000000000     -0.000000720000      0.000000000000
       0.000000000000      0.499999280000      0.500000000000
       0.500000000000      0.000000715000      0.500000000000
       0.500000000000      0.500000715000      0.000000000000
       0.237466100000      0.249991990000      0.700002790000
       0.237466100000      0.749991990000      0.799997210000
       0.262533900000      0.750008010000      0.299997375000
       0.262533900000      0.250008010000      0.200002625000
       0.762533900000      0.249991990000      0.299997210000
       0.762533900000      0.749991990000      0.200002790000
       0.737466100000      0.750008010000      0.700002625000
       0.737466100000      0.250008010000      0.799997375000
 rms dE/dt=  6.3769E-02; max dE/dt=  7.9771E-02; dE/dt below (all hartree)
    1       0.000000000000     -0.125216214487      0.000000000000
    2       0.000000000000     -0.125231295771      0.000000000000
    3       0.000000000000     -0.125280564017      0.000000000000
    4       0.000000000000     -0.125266806199      0.000000000000
    5      -0.079715655139      0.062686980715     -0.013234088862
    6      -0.079693575811      0.062577557642      0.013149793634
    7       0.079739106525      0.062618288863      0.013264367402
    8       0.079770774687      0.062694533980     -0.013181290571
    9       0.079715655139      0.062686980715      0.013234088862
   10       0.079693575811      0.062577557642     -0.013149793634
   11      -0.079739106525      0.062618288863     -0.013264367402
   12      -0.079770774687      0.062694533980      0.013181290571
 
 cartesian coordinates (angstrom) at end:
    1      0.00000000000000    -0.00000365440896     0.00000000000000
    2      0.00000000000000     2.53778034559104     2.53778400000000
    3      2.53778400000000     0.00000362903112     2.53778400000000
    4      2.53778400000000     2.53778762903112     0.00000000000000
    5      1.20527533824480     1.26885134470032     3.55291176083472
    6      1.20527533824480     3.80663534470032     4.06044023916528
    7      1.33250866175520     3.80671665529968     1.52265707663400
    8      1.33250866175520     1.26893265529968     1.01512692336600
    9      3.87029266175520     1.26885134470032     1.52265623916528
   10      3.87029266175520     3.80663534470032     1.01512776083472
   11      3.74305933824480     3.80671665529968     3.55291092336600
   12      3.74305933824480     1.26893265529968     4.06044107663400
 
 cartesian forces (hartree/bohr) at end:
    1      0.00000000000000     0.01305639399922     0.00000000000000
    2      0.00000000000000     0.01305796636939     0.00000000000000
    3      0.00000000000000     0.01306310306204     0.00000000000000
    4      0.00000000000000     0.01306166867603     0.00000000000000
    5      0.00831113047200    -0.00653433719028     0.00137978216477
    6      0.00830882848780    -0.00652292877332    -0.00137099356930
    7     -0.00831357550653    -0.00652717539826    -0.00138293899630
    8     -0.00831687721967    -0.00653512469147     0.00137427743062
    9     -0.00831113047200    -0.00653433719028    -0.00137978216477
   10     -0.00830882848780    -0.00652292877332     0.00137099356930
   11      0.00831357550653    -0.00652717539826     0.00138293899630
   12      0.00831687721967    -0.00653512469147    -0.00137427743062
 frms,max,avg= 6.6485420E-03 1.3063103E-02   0.000E+00 -1.389E-06  0.000E+00 h/b
 
 cartesian forces (eV/Angstrom) at end:
    1      0.00000000000000     0.67138671729035     0.00000000000000
    2      0.00000000000000     0.67146757180853     0.00000000000000
    3      0.00000000000000     0.67173171114254     0.00000000000000
    4      0.00000000000000     0.67165795205468     0.00000000000000
    5      0.42737547632995    -0.33600909991786     0.07095124566833
    6      0.42725710355320    -0.33542245558010    -0.07049931795642
    7     -0.42750120505030    -0.33564082579616    -0.07111357645874
    8     -0.42767098595210    -0.33604959485393     0.07066818088103
    9     -0.42737547632995    -0.33600909991786    -0.07095124566833
   10     -0.42725710355320    -0.33542245558010     0.07049931795642
   11      0.42750120505030    -0.33564082579616     0.07111357645874
   12      0.42767098595210    -0.33604959485393    -0.07066818088103
 frms,max,avg= 3.4188175E-01 6.7173171E-01   0.000E+00 -7.141E-05  0.000E+00 e/A
 length scales=  9.591433488838  9.591433488838  9.591433488838 bohr
              =  5.075568000000  5.075568000000  5.075568000000 angstroms
 prteigrs : about to open file o_EIG
 Fermi (or HOMO) energy (hartree) =   0.27643   Average Vxc (hartree)=  -0.44593
 Eigenvalues (hartree) for nkpt= 112  k points:
 kpt#   1, nband= 50, wtk=  0.00463, kpt=  0.0000  0.0000  0.0000 (reduced coord)
  -1.94309   -1.94243   -1.94240   -1.94239   -0.80513   -0.80512   -0.80472   -0.79321
  -0.79294   -0.79252   -0.79228   -0.79129   -0.79126   -0.78831   -0.78671   -0.78669
  -0.39521   -0.33885   -0.32928   -0.32916   -0.31897   -0.31565   -0.31553   -0.29757
   0.06021    0.06041    0.07246    0.09535    0.10255    0.10263    0.16315    0.16426
   0.16575    0.16775    0.17268    0.17311    0.22237    0.22256    0.22339    0.22839
   0.24469    0.25319    0.25332    0.25677    0.25692    0.26526    0.26573    0.27462
   0.44364    0.44591
 prteigrs : prtvol=0 or 1, do not print more k-points.
 

--- !EnergyTerms
iteration_state     : {dtset: 1, }
comment             : Components of total free energy in Hartree
kinetic             :  1.46251706360653E+02
hartree             :  5.60370256098637E+01
xc                  : -9.09172620117613E+01
Ewald energy        : -2.70028749037130E+02
psp_core            :  1.49595106529080E+01
local_psp           : -2.05813820412458E+02
non_local_psp       : -9.11865603986755E+00
total_energy        : -3.58630244877793E+02
total_energy_eV     : -9.75882525717542E+03
band_energy         : -3.11121593718415E+01
...

 
 Cartesian components of stress tensor (hartree/bohr^3)
  sigma(1 1)= -1.98688292E-04  sigma(3 2)=  0.00000000E+00
  sigma(2 2)= -2.11230402E-04  sigma(3 1)= -9.43830813E-09
  sigma(3 3)= -5.04417684E-04  sigma(2 1)=  0.00000000E+00
 
-Cartesian components of stress tensor (GPa)         [Pressure=  8.9669E+00 GPa]
- sigma(1 1)= -5.84561037E+00  sigma(3 2)=  0.00000000E+00
- sigma(2 2)= -6.21461194E+00  sigma(3 1)= -2.77684565E-04
- sigma(3 3)= -1.48404781E+01  sigma(2 1)=  0.00000000E+00
 
== END DATASET(S) ==============================================================
================================================================================
  
 -outvars: echo values of variables after computation  --------
            acell      9.5914334888E+00  9.5914334888E+00  9.5914334888E+00 Bohr
              amu      1.78490000E+02  1.59994000E+01
          chkprim           0
             ecut      2.50000000E+01 Hartree
           ecutsm      5.00000000E-01 Hartree
           etotal     -3.5863024488E+02
            fcart      2.8912057933E-19  1.3056393999E-02  0.0000000000E+00
                       2.8912057933E-19  1.3057966369E-02  0.0000000000E+00
                       2.8912057933E-19  1.3063103062E-02  0.0000000000E+00
                       2.8912057933E-19  1.3061668676E-02  0.0000000000E+00
                       8.3111304720E-03 -6.5343371903E-03  1.3797821648E-03
                       8.3088284878E-03 -6.5229287733E-03 -1.3709935693E-03
                      -8.3135755065E-03 -6.5271753983E-03 -1.3829389963E-03
                      -8.3168772197E-03 -6.5351246915E-03  1.3742774306E-03
                      -8.3111304720E-03 -6.5343371903E-03 -1.3797821648E-03
                      -8.3088284878E-03 -6.5229287733E-03  1.3709935693E-03
                       8.3135755065E-03 -6.5271753983E-03  1.3829389963E-03
                       8.3168772197E-03 -6.5351246915E-03 -1.3742774306E-03
-          fftalg         512
           istwfk        2    0    0    3    0    0    0    0    0    0
                         0    0    0    0    0    0    6    0    0    7
                         0    0    0    0    0    0    0    0    0    0
                         0    0    0    0    0    0    0    0    0    0
                         0    0    0    0    0    0    0    0    0    0
                       outvar_i_n : Printing only first  50 k-points.
              ixc          11
              kpt      0.00000000E+00  0.00000000E+00  0.00000000E+00
                       1.66666667E-01  0.00000000E+00  0.00000000E+00
                       3.33333333E-01  0.00000000E+00  0.00000000E+00
                       5.00000000E-01  0.00000000E+00  0.00000000E+00
                       0.00000000E+00  1.66666667E-01  0.00000000E+00
                       1.66666667E-01  1.66666667E-01  0.00000000E+00
                       3.33333333E-01  1.66666667E-01  0.00000000E+00
                       5.00000000E-01  1.66666667E-01  0.00000000E+00
                      -3.33333333E-01  1.66666667E-01  0.00000000E+00
                      -1.66666667E-01  1.66666667E-01  0.00000000E+00
                       0.00000000E+00  3.33333333E-01  0.00000000E+00
                       1.66666667E-01  3.33333333E-01  0.00000000E+00
                       3.33333333E-01  3.33333333E-01  0.00000000E+00
                       5.00000000E-01  3.33333333E-01  0.00000000E+00
                      -3.33333333E-01  3.33333333E-01  0.00000000E+00
                      -1.66666667E-01  3.33333333E-01  0.00000000E+00
                       0.00000000E+00  5.00000000E-01  0.00000000E+00
                       1.66666667E-01  5.00000000E-01  0.00000000E+00
                       3.33333333E-01  5.00000000E-01  0.00000000E+00
                       5.00000000E-01  5.00000000E-01  0.00000000E+00
                       0.00000000E+00  0.00000000E+00  1.66666667E-01
                       1.66666667E-01  0.00000000E+00  1.66666667E-01
                       3.33333333E-01  0.00000000E+00  1.66666667E-01
                       5.00000000E-01  0.00000000E+00  1.66666667E-01
                      -3.33333333E-01  0.00000000E+00  1.66666667E-01
                      -1.66666667E-01  0.00000000E+00  1.66666667E-01
                       0.00000000E+00  1.66666667E-01  1.66666667E-01
                       1.66666667E-01  1.66666667E-01  1.66666667E-01
                       3.33333333E-01  1.66666667E-01  1.66666667E-01
                       5.00000000E-01  1.66666667E-01  1.66666667E-01
                      -3.33333333E-01  1.66666667E-01  1.66666667E-01
                      -1.66666667E-01  1.66666667E-01  1.66666667E-01
                       0.00000000E+00  3.33333333E-01  1.66666667E-01
                       1.66666667E-01  3.33333333E-01  1.66666667E-01
                       3.33333333E-01  3.33333333E-01  1.66666667E-01
                       5.00000000E-01  3.33333333E-01  1.66666667E-01
                      -3.33333333E-01  3.33333333E-01  1.66666667E-01
                      -1.66666667E-01  3.33333333E-01  1.66666667E-01
                       0.00000000E+00  5.00000000E-01  1.66666667E-01
                       1.66666667E-01  5.00000000E-01  1.66666667E-01
                       3.33333333E-01  5.00000000E-01  1.66666667E-01
                       5.00000000E-01  5.00000000E-01  1.66666667E-01
                      -3.33333333E-01  5.00000000E-01  1.66666667E-01
                      -1.66666667E-01  5.00000000E-01  1.66666667E-01
                       0.00000000E+00 -3.33333333E-01  1.66666667E-01
                       1.66666667E-01 -3.33333333E-01  1.66666667E-01
                       3.33333333E-01 -3.33333333E-01  1.66666667E-01
                       5.00000000E-01 -3.33333333E-01  1.66666667E-01
                      -3.33333333E-01 -3.33333333E-01  1.66666667E-01
                      -1.66666667E-01 -3.33333333E-01  1.66666667E-01
                       outvar_i_n : Printing only first  50 k-points.
           kptopt           2
         kptrlatt        6    0    0      0    6    0      0    0    6
          kptrlen      5.75486009E+01
P           mkmem           4
            natom          12
            nband          50
            ngfft          45      45      45
             nkpt         112
            nstep         100
             nsym           2
           ntypat           2
              occ      2.000000  2.000000  2.000000  2.000000  2.000000  2.000000
                       2.000000  2.000000  2.000000  2.000000  2.000000  2.000000
                       2.000000  2.000000  2.000000  2.000000  2.000000  2.000000
                       2.000000  2.000000  2.000000  2.000000  2.000000  2.000000
                       2.000000  2.000000  2.000000  2.000000  2.000000  2.000000
                       2.000000  2.000000  2.000000  2.000000  2.000000  2.000000
                       2.000000  2.000000  2.000000  2.000000  2.000000  2.000000
                       2.000000  2.000000  2.000000  2.000000  2.000000  2.000000
                       0.000000  0.000000
        pawecutdg      2.50000000E+01 Hartree
         pawxcdev           0
          spgroup          30
           strten     -1.9868829154E-04 -2.1123040207E-04 -5.0441768441E-04
                       0.0000000000E+00 -9.4383081292E-09  0.0000000000E+00
        symmorphi           0
           symrel      1  0  0   0  1  0   0  0  1      -1  0  0   0  1  0   0  0 -1
           tolmxf      1.00000000E-05
           tolvrs      1.00000000E-18
           tsmear      4.00000000E-02 Hartree
            typat      1  1  1  1  2  2  2  2  2  2  2  2
              wtk        0.00463    0.00926    0.00926    0.00463    0.00926    0.00926
                         0.00926    0.00926    0.00926    0.00926    0.00926    0.00926
                         0.00926    0.00926    0.00926    0.00926    0.00463    0.00926
                         0.00926    0.00463    0.00926    0.00926    0.00926    0.00926
                         0.00926    0.00926    0.00926    0.00926    0.00926    0.00926
                         0.00926    0.00926    0.00926    0.00926    0.00926    0.00926
                         0.00926    0.00926    0.00926    0.00926    0.00926    0.00926
                         0.00926    0.00926    0.00926    0.00926    0.00926    0.00926
                         0.00926    0.00926
                       outvars : Printing only first  50 k-points.
           xangst      0.0000000000E+00 -3.6544089603E-06  0.0000000000E+00
                       0.0000000000E+00  2.5377803456E+00  2.5377840000E+00
                       2.5377840000E+00  3.6290311201E-06  2.5377840000E+00
                       2.5377840000E+00  2.5377876290E+00  0.0000000000E+00
                       1.2052753382E+00  1.2688513447E+00  3.5529117608E+00
                       1.2052753382E+00  3.8066353447E+00  4.0604402392E+00
                       1.3325086618E+00  3.8067166553E+00  1.5226570766E+00
                       1.3325086618E+00  1.2689326553E+00  1.0151269234E+00
                       3.8702926618E+00  1.2688513447E+00  1.5226562392E+00
                       3.8702926618E+00  3.8066353447E+00  1.0151277608E+00
                       3.7430593382E+00  3.8067166553E+00  3.5529109234E+00
                       3.7430593382E+00  1.2689326553E+00  4.0604410766E+00
            xcart      0.0000000000E+00 -6.9058321126E-06  0.0000000000E+00
                       0.0000000000E+00  4.7957098386E+00  4.7957167444E+00
                       4.7957167444E+00  6.8578749447E-06  4.7957167444E+00
                       4.7957167444E+00  4.7957236023E+00  0.0000000000E+00
                       2.2776403040E+00  2.3977815448E+00  6.7140302023E+00
                       2.2776403040E+00  7.1934982892E+00  7.6731200310E+00
                       2.5180764404E+00  7.1936519440E+00  2.8774048691E+00
                       2.5180764404E+00  2.3979351996E+00  1.9183118753E+00
                       7.3137931848E+00  2.3977815448E+00  2.8774032866E+00
                       7.3137931848E+00  7.1934982892E+00  1.9183134579E+00
                       7.0733570484E+00  7.1936519440E+00  6.7140286197E+00
                       7.0733570484E+00  2.3979351996E+00  7.6731216136E+00
             xred      0.0000000000E+00 -7.2000000007E-07  0.0000000000E+00
                       0.0000000000E+00  4.9999928000E-01  5.0000000000E-01
                       5.0000000000E-01  7.1500000002E-07  5.0000000000E-01
                       5.0000000000E-01  5.0000071500E-01  0.0000000000E+00
                       2.3746610000E-01  2.4999199000E-01  7.0000279000E-01
                       2.3746610000E-01  7.4999199000E-01  7.9999721000E-01
                       2.6253390000E-01  7.5000801000E-01  2.9999737500E-01
                       2.6253390000E-01  2.5000801000E-01  2.0000262500E-01
                       7.6253390000E-01  2.4999199000E-01  2.9999721000E-01
                       7.6253390000E-01  7.4999199000E-01  2.0000279000E-01
                       7.3746610000E-01  7.5000801000E-01  7.0000262500E-01
                       7.3746610000E-01  2.5000801000E-01  7.9999737500E-01
            znucl       72.00000    8.00000
 
================================================================================


- Timing analysis has been suppressed with timopt=0



================================================================================

 Suggested references for the acknowledgment of ABINIT usage.

 The users of ABINIT have little formal obligations with respect to the ABINIT group
 (those specified in the GNU General Public License, http://www.gnu.org/copyleft/gpl.txt).
 However, it is common practice in the scientific literature,
 to acknowledge the efforts of people that have made the research possible.
 In this spirit, please find below suggested citations of work written by ABINIT developers,
 corresponding to implementations inside of ABINIT that you have used in the present run.
 Note also that it will be of great value to readers of publications presenting these results,
 to read papers enabling them to understand the theoretical formalism and details
 of the ABINIT implementation.
 For information on why they are suggested, see also https://docs.abinit.org/theory/acknowledgments.
-
- [1] Specification of an extensible and portable file format for electronic structure and crystallographic data
- X. Gonze, C.-O. Almbladh, A. Cucca, D. Caliste, C. Freysoldt, M. Marques, V. Olevano, Y. Pouillon, M.J. Verstraete,
- Comput. Material Science 43, 1056 (2008).
- Comment: to be cited in case the ETSF_IO file format is used, i.e. iomode=3.
- DOI and bibtex: see https://docs.abinit.org/theory/bibliography/#gonze2008
-
- [2] The Abinit project: Impact, environment and recent developments.
- Computer Phys. Comm. 248, 107042 (2020).
- X.Gonze, B. Amadon, G. Antonius, F.Arnardi, L.Baguet, J.-M.Beuken,
- J.Bieder, F.Bottin, J.Bouchet, E.Bousquet, N.Brouwer, F.Bruneval,
- G.Brunin, T.Cavignac, J.-B. Charraud, Wei Chen, M.Cote, S.Cottenier,
- J.Denier, G.Geneste, Ph.Ghosez, M.Giantomassi, Y.Gillet, O.Gingras,
- D.R.Hamann, G.Hautier, Xu He, N.Helbig, N.Holzwarth, Y.Jia, F.Jollet,
- W.Lafargue-Dit-Hauret, K.Lejaeghere, M.A.L.Marques, A.Martin, C.Martins,
- H.P.C. Miranda, F.Naccarato, K. Persson, G.Petretto, V.Planes, Y.Pouillon,
- S.Prokhorenko, F.Ricci, G.-M.Rignanese, A.H.Romero, M.M.Schmitt, M.Torrent,
- M.J.van Setten, B.Van Troeye, M.J.Verstraete, G.Zerah and J.W.Zwanzig
- Comment: the fifth generic paper describing the ABINIT project.
- Note that a version of this paper, that is not formatted for Computer Phys. Comm. 
- is available at https://www.abinit.org/sites/default/files/ABINIT20.pdf .
- The licence allows the authors to put it on the Web.
- DOI and bibtex: see https://docs.abinit.org/theory/bibliography/#gonze2020
-
- [3] Optimized norm-conserving Vanderbilt pseudopotentials.
- D.R. Hamann, Phys. Rev. B 88, 085117 (2013).
- Comment: Some pseudopotential generated using the ONCVPSP code were used.
- DOI and bibtex: see https://docs.abinit.org/theory/bibliography/#hamann2013
-
- [4] ABINIT: Overview, and focus on selected capabilities
- J. Chem. Phys. 152, 124102 (2020).
- A. Romero, D.C. Allan, B. Amadon, G. Antonius, T. Applencourt, L.Baguet,
- J.Bieder, F.Bottin, J.Bouchet, E.Bousquet, F.Bruneval,
- G.Brunin, D.Caliste, M.Cote,
- J.Denier, C. Dreyer, Ph.Ghosez, M.Giantomassi, Y.Gillet, O.Gingras,
- D.R.Hamann, G.Hautier, F.Jollet, G. Jomard,
- A.Martin, 
- H.P.C. Miranda, F.Naccarato, G.Petretto, N.A. Pike, V.Planes,
- S.Prokhorenko, T. Rangel, F.Ricci, G.-M.Rignanese, M.Royo, M.Stengel, M.Torrent,
- M.J.van Setten, B.Van Troeye, M.J.Verstraete, J.Wiktor, J.W.Zwanziger, and X.Gonze.
- Comment: a global overview of ABINIT, with focus on selected capabilities .
- Note that a version of this paper, that is not formatted for J. Chem. Phys 
- is available at https://www.abinit.org/sites/default/files/ABINIT20_JPC.pdf .
- The licence allows the authors to put it on the Web.
- DOI and bibtex: see https://docs.abinit.org/theory/bibliography/#romero2020
-
- [5] Recent developments in the ABINIT software package.
- Computer Phys. Comm. 205, 106 (2016).
- X.Gonze, F.Jollet, F.Abreu Araujo, D.Adams, B.Amadon, T.Applencourt,
- C.Audouze, J.-M.Beuken, J.Bieder, A.Bokhanchuk, E.Bousquet, F.Bruneval
- D.Caliste, M.Cote, F.Dahm, F.Da Pieve, M.Delaveau, M.Di Gennaro,
- B.Dorado, C.Espejo, G.Geneste, L.Genovese, A.Gerossier, M.Giantomassi,
- Y.Gillet, D.R.Hamann, L.He, G.Jomard, J.Laflamme Janssen, S.Le Roux,
- A.Levitt, A.Lherbier, F.Liu, I.Lukacevic, A.Martin, C.Martins,
- M.J.T.Oliveira, S.Ponce, Y.Pouillon, T.Rangel, G.-M.Rignanese,
- A.H.Romero, B.Rousseau, O.Rubel, A.A.Shukri, M.Stankovski, M.Torrent,
- M.J.Van Setten, B.Van Troeye, M.J.Verstraete, D.Waroquier, J.Wiktor,
- B.Xu, A.Zhou, J.W.Zwanziger.
- Comment: the fourth generic paper describing the ABINIT project.
- Note that a version of this paper, that is not formatted for Computer Phys. Comm. 
- is available at https://www.abinit.org/sites/default/files/ABINIT16.pdf .
- The licence allows the authors to put it on the Web.
- DOI and bibtex: see https://docs.abinit.org/theory/bibliography/#gonze2016
-
- Proc.   0 individual time (sec): cpu=        114.2  wall=        117.9
 
================================================================================
 
 Calculation completed.
.Delivered   0 WARNINGs and   0 COMMENTs to log file.
+Overall time at end (sec) : cpu=       4189.0  wall=       4242.8
