
.Version 9.4.1 of ABINIT 
.(MPI version, prepared for a x86_64_linux_intel19.0 computer) 

.Copyright (C) 1998-2021 ABINIT group . 
 ABINIT comes with ABSOLUTELY NO WARRANTY.
 It is free software, and you are welcome to redistribute it
 under certain conditions (GNU General Public License,
 see ~abinit/COPYING or http://www.gnu.org/copyleft/gpl.txt).

 ABINIT is a project of the Universite Catholique de Louvain,
 Corning Inc. and other collaborators, see ~abinit/doc/developers/contributors.txt .
 Please read https://docs.abinit.org/theory/acknowledgments for suggested
 acknowledgments of the ABINIT effort.
 For more information, see https://www.abinit.org .

.Starting date : Sat  3 Jul 2021.
- ( at 08h26 )
  
- input  file    -> PATH19
- output file    -> PATH19.abo
- root for input  files -> i
- root for output files -> o
 
 
 Symmetries : space group P1 (#  1); Bravais aP (primitive triclinic)
================================================================================
 Values of the parameters that define the memory need of the present run
     intxc =       0    ionmov =       0      iscf =       7    lmnmax =       8
     lnmax =       8     mgfft =      45  mpssoang =       4    mqgrid =    3001
     natom =      12  nloc_mem =       1    nspden =       1   nspinor =       1
    nsppol =       1      nsym =       1    n1xccc =    2501    ntypat =       2
    occopt =       1   xclevel =       2
-    mband =          50        mffmem =           1         mkmem =           4
       mpw =        5280          nfft =       91125          nkpt =         112
================================================================================
P This job should need less than                      45.554 Mbytes of memory.
  Rough estimation (10% accuracy) of disk space for files :
_ WF disk file :    451.174 Mbytes ; DEN or POT disk file :      0.697 Mbytes.
================================================================================
 
--------------------------------------------------------------------------------
------------- Echo of variables that govern the present computation ------------
--------------------------------------------------------------------------------
-
- outvars: echo of selected default values                                      
-   iomode0 =  3 , fftalg0 =512 , wfoptalg0 =  0
-
- outvars: echo of global parameters not present in the input file              
-  max_nthreads =    0
-
 -outvars: echo values of preprocessed input variables --------
            acell      9.5914334888E+00  9.5914334888E+00  9.5914334888E+00 Bohr
              amu      1.78490000E+02  1.59994000E+01
          chkprim           0
             ecut      2.50000000E+01 Hartree
           ecutsm      5.00000000E-01 Hartree
-          fftalg         512
           istwfk        2    0    0    3    0    0    0    0    0    0
                         0    0    0    0    0    0    6    0    0    7
                         0    0    0    0    0    0    0    0    0    0
                         0    0    0    0    0    0    0    0    0    0
                         0    0    0    0    0    0    0    0    0    0
                       outvar_i_n : Printing only first  50 k-points.
              ixc          11
              kpt      0.00000000E+00  0.00000000E+00  0.00000000E+00
                       1.66666667E-01  0.00000000E+00  0.00000000E+00
                       3.33333333E-01  0.00000000E+00  0.00000000E+00
                       5.00000000E-01  0.00000000E+00  0.00000000E+00
                       0.00000000E+00  1.66666667E-01  0.00000000E+00
                       1.66666667E-01  1.66666667E-01  0.00000000E+00
                       3.33333333E-01  1.66666667E-01  0.00000000E+00
                       5.00000000E-01  1.66666667E-01  0.00000000E+00
                      -3.33333333E-01  1.66666667E-01  0.00000000E+00
                      -1.66666667E-01  1.66666667E-01  0.00000000E+00
                       0.00000000E+00  3.33333333E-01  0.00000000E+00
                       1.66666667E-01  3.33333333E-01  0.00000000E+00
                       3.33333333E-01  3.33333333E-01  0.00000000E+00
                       5.00000000E-01  3.33333333E-01  0.00000000E+00
                      -3.33333333E-01  3.33333333E-01  0.00000000E+00
                      -1.66666667E-01  3.33333333E-01  0.00000000E+00
                       0.00000000E+00  5.00000000E-01  0.00000000E+00
                       1.66666667E-01  5.00000000E-01  0.00000000E+00
                       3.33333333E-01  5.00000000E-01  0.00000000E+00
                       5.00000000E-01  5.00000000E-01  0.00000000E+00
                       0.00000000E+00  0.00000000E+00  1.66666667E-01
                       1.66666667E-01  0.00000000E+00  1.66666667E-01
                       3.33333333E-01  0.00000000E+00  1.66666667E-01
                       5.00000000E-01  0.00000000E+00  1.66666667E-01
                      -3.33333333E-01  0.00000000E+00  1.66666667E-01
                      -1.66666667E-01  0.00000000E+00  1.66666667E-01
                       0.00000000E+00  1.66666667E-01  1.66666667E-01
                       1.66666667E-01  1.66666667E-01  1.66666667E-01
                       3.33333333E-01  1.66666667E-01  1.66666667E-01
                       5.00000000E-01  1.66666667E-01  1.66666667E-01
                      -3.33333333E-01  1.66666667E-01  1.66666667E-01
                      -1.66666667E-01  1.66666667E-01  1.66666667E-01
                       0.00000000E+00  3.33333333E-01  1.66666667E-01
                       1.66666667E-01  3.33333333E-01  1.66666667E-01
                       3.33333333E-01  3.33333333E-01  1.66666667E-01
                       5.00000000E-01  3.33333333E-01  1.66666667E-01
                      -3.33333333E-01  3.33333333E-01  1.66666667E-01
                      -1.66666667E-01  3.33333333E-01  1.66666667E-01
                       0.00000000E+00  5.00000000E-01  1.66666667E-01
                       1.66666667E-01  5.00000000E-01  1.66666667E-01
                       3.33333333E-01  5.00000000E-01  1.66666667E-01
                       5.00000000E-01  5.00000000E-01  1.66666667E-01
                      -3.33333333E-01  5.00000000E-01  1.66666667E-01
                      -1.66666667E-01  5.00000000E-01  1.66666667E-01
                       0.00000000E+00 -3.33333333E-01  1.66666667E-01
                       1.66666667E-01 -3.33333333E-01  1.66666667E-01
                       3.33333333E-01 -3.33333333E-01  1.66666667E-01
                       5.00000000E-01 -3.33333333E-01  1.66666667E-01
                      -3.33333333E-01 -3.33333333E-01  1.66666667E-01
                      -1.66666667E-01 -3.33333333E-01  1.66666667E-01
                       outvar_i_n : Printing only first  50 k-points.
           kptopt           2
         kptrlatt        6    0    0      0    6    0      0    0    6
          kptrlen      5.75486009E+01
P           mkmem           4
            natom          12
            nband          50
            ngfft          45      45      45
             nkpt         112
            nstep         100
             nsym           1
           ntypat           2
              occ      2.000000  2.000000  2.000000  2.000000  2.000000  2.000000
                       2.000000  2.000000  2.000000  2.000000  2.000000  2.000000
                       2.000000  2.000000  2.000000  2.000000  2.000000  2.000000
                       2.000000  2.000000  2.000000  2.000000  2.000000  2.000000
                       2.000000  2.000000  2.000000  2.000000  2.000000  2.000000
                       2.000000  2.000000  2.000000  2.000000  2.000000  2.000000
                       2.000000  2.000000  2.000000  2.000000  2.000000  2.000000
                       2.000000  2.000000  2.000000  2.000000  2.000000  2.000000
                       0.000000  0.000000
        pawecutdg      2.50000000E+01 Hartree
         pawxcdev           0
          spgroup           1
        symmorphi           0
           tolmxf      1.00000000E-05
           tolvrs      1.00000000E-18
           tsmear      4.00000000E-02 Hartree
            typat      1  1  1  1  2  2  2  2  2  2  2  2
              wtk        0.00463    0.00926    0.00926    0.00463    0.00926    0.00926
                         0.00926    0.00926    0.00926    0.00926    0.00926    0.00926
                         0.00926    0.00926    0.00926    0.00926    0.00463    0.00926
                         0.00926    0.00463    0.00926    0.00926    0.00926    0.00926
                         0.00926    0.00926    0.00926    0.00926    0.00926    0.00926
                         0.00926    0.00926    0.00926    0.00926    0.00926    0.00926
                         0.00926    0.00926    0.00926    0.00926    0.00926    0.00926
                         0.00926    0.00926    0.00926    0.00926    0.00926    0.00926
                         0.00926    0.00926
                       outvars : Printing only first  50 k-points.
           xangst      8.0660266832E-02  4.9183015255E-02 -4.5493331098E-03
                       8.0659607008E-02  2.5870612178E+00  2.5332913610E+00
                       2.4522543347E+00  4.9182964500E-02  2.5332128927E+00
                       2.4522546393E+00  2.5870612686E+00 -4.4709663398E-03
                       1.0729083822E+00  1.3120334144E+00  3.7601385738E+00
                       1.0735366360E+00  3.8488841697E+00  3.8955278783E+00
                       1.4875896474E+00  3.8485880103E+00  1.3581065784E+00
                       1.4879127581E+00  1.3119104841E+00  1.2226946369E+00
                       4.1871196152E+00  7.5699132588E-01  1.8971441829E+00
                       4.1870017605E+00  3.2957086213E+00  6.8374174362E-01
                       3.4498977789E+00  3.2957541492E+00  3.2218658067E+00
                       3.4490642692E+00  7.5686362459E-01  4.4352909337E+00
            xcart      1.5242581412E-01  9.2942429222E-02 -8.5969936647E-03
                       1.5242456723E-01  4.8888371906E+00  4.7872268871E+00
                       4.6340891008E+00  9.2942333308E-02  4.7870786035E+00
                       4.6340896763E+00  4.8888372866E+00 -8.4489019316E-03
                       2.0275030081E+00  2.4793838304E+00  7.1056321262E+00
                       2.0286902357E+00  7.2733369980E+00  7.3614808330E+00
                       2.8111370317E+00  7.2727773378E+00  2.5664494924E+00
                       2.8117476224E+00  2.4791515259E+00  2.3105580078E+00
                       7.9125093583E+00  1.4305062909E+00  3.5850829402E+00
                       7.9122866452E+00  6.2279867081E+00  1.2920846411E+00
                       6.5193619886E+00  6.2280727433E+00  6.0884440115E+00
                       6.5177868834E+00  1.4302649704E+00  8.3814851844E+00
             xred      1.5891870000E-02  9.6901500000E-03 -8.9632000000E-04
                       1.5891740000E-02  5.0970871000E-01  4.9911485000E-01
                       4.8314875000E-01  9.6901400000E-03  4.9909939000E-01
                       4.8314881000E-01  5.0970872000E-01 -8.8088000000E-04
                       2.1138686000E-01  2.5849982000E-01  7.4083109000E-01
                       2.1151064000E-01  7.5831595000E-01  7.6750580000E-01
                       2.9308831000E-01  7.5825760000E-01  2.6757726000E-01
                       2.9315197000E-01  2.5847560000E-01  2.4089809000E-01
                       8.2495587000E-01  1.4914416000E-01  3.7377968000E-01
                       8.2493265000E-01  6.4932804000E-01  1.3471236000E-01
                       6.7970674000E-01  6.4933701000E-01  6.3477936000E-01
                       6.7954252000E-01  1.4911900000E-01  8.7385115000E-01
            znucl       72.00000    8.00000
 
================================================================================
 
 chkinp: Checking input parameters for consistency.
 
================================================================================
== DATASET  1 ==================================================================
-   mpi_nproc: 36, omp_nthreads: -1 (-1 if OMP is not activated)
-    --> not optimal distribution: autoparal keyword recommended in input file <--
 

--- !DatasetInfo
iteration_state: {dtset: 1, }
dimensions: {natom: 12, nkpt: 112, mband: 50, nsppol: 1, nspinor: 1, nspden: 1, mpw: 5280, }
cutoff_energies: {ecut:  25.0, pawecutdg:  25.0, }
electrons: {nelect:   9.60000000E+01, charge:   0.00000000E+00, occopt:   1.00000000E+00, tsmear:   4.00000000E-02, }
meta: {optdriver: 0, ionmov: 0, optcell: 0, iscf: 7, paral_kgb: 0, }
...

 Exchange-correlation functional for the present dataset will be:
  GGA: Perdew-Burke-Ernzerhof functional - ixc=11
 Citation for XC functional:
  J.P.Perdew, K.Burke, M.Ernzerhof, PRL 77, 3865 (1996)
 
 Real(R)+Recip(G) space primitive vectors, cartesian coordinates (Bohr,Bohr^-1):
 R(1)=  9.5914335  0.0000000  0.0000000  G(1)=  0.1042597  0.0000000  0.0000000
 R(2)=  0.0000000  9.5914335  0.0000000  G(2)=  0.0000000  0.1042597  0.0000000
 R(3)=  0.0000000  0.0000000  9.5914335  G(3)=  0.0000000  0.0000000  0.1042597
 Unit cell volume ucvol=  8.8236964E+02 bohr^3
 Angles (23,13,12)=  9.00000000E+01  9.00000000E+01  9.00000000E+01 degrees
 
 getcut: wavevector=  0.0000  0.0000  0.0000  ngfft=  45  45  45
         ecut(hartree)=     25.000   => boxcut(ratio)=   2.03814
 
--- Pseudopotential description ------------------------------------------------
- pspini: atom type   1  psp file is /workspace/jiahaoz/PACKAGE_INSTALL/abinit-9.4.1/pbe_s_sr/Hf.psp8
- pspatm: opening atomic psp file    /workspace/jiahaoz/PACKAGE_INSTALL/abinit-9.4.1/pbe_s_sr/Hf.psp8
- Hf    ONCVPSP  r_core=  1.72  1.72  1.72  2.43
- 72.00000  12.00000    160625                znucl, zion, pspdat
    8   11    3    4       600   0.00000      pspcod,pspxc,lmax,lloc,mmax,r2well
    5.99000000000000    5.40000000000000    0.00000000000000   rchrg,fchrg,qchrg
     nproj     2     2     2     2
     extension_switch     1
  pspatm : epsatm=   21.98649506
         --- l  ekb(1:nproj) -->
             0    5.812335   -0.521211
             1   -3.038329    2.466565
             2    2.060039    0.471534
             3    9.947446    0.353012
 pspatm: atomic psp has been read  and splines computed
 
- pspini: atom type   2  psp file is /workspace/jiahaoz/PACKAGE_INSTALL/abinit-9.4.1/pbe_s_sr/O.psp8
- pspatm: opening atomic psp file    /workspace/jiahaoz/PACKAGE_INSTALL/abinit-9.4.1/pbe_s_sr/O.psp8
- O     ONCVPSP  r_core=  1.36  1.46  1.26
-  8.00000   6.00000    151103                znucl, zion, pspdat
    8   11    2    4       600   0.00000      pspcod,pspxc,lmax,lloc,mmax,r2well
    5.99000000000000    4.00000000000000    0.00000000000000   rchrg,fchrg,qchrg
     nproj     2     2     1
     extension_switch     1
  pspatm : epsatm=    6.19401560
         --- l  ekb(1:nproj) -->
             0    5.257212    0.704241
             1   -5.135443   -1.451781
             2   -4.371486
 pspatm: atomic psp has been read  and splines computed
 
   1.31998181E+04                                ecore*ucvol(ha*bohr**3)
--------------------------------------------------------------------------------
 
_setup2: Arith. and geom. avg. npw (full set) are    5268.875    5268.869
 
================================================================================

--- !BeginCycle
iteration_state: {dtset: 1, }
solver: {iscf: 7, nstep: 100, nline: 4, wfoptalg: 0, }
tolerances: {tolvrs: 1.00E-18, }
...
 
     iter   Etot(hartree)      deltaE(h)  residm     vres2
 ETOT  1  -357.55467459346    -3.576E+02 3.364E-01 1.326E+03
 ETOT  2  -357.45795722598     9.672E-02 2.567E-02 1.636E+03
 ETOT  3  -358.58824109795    -1.130E+00 6.707E-03 4.591E+01
 ETOT  4  -358.61202480995    -2.378E-02 9.918E-03 2.227E+00
 ETOT  5  -358.61295227972    -9.275E-04 2.695E-03 9.784E-01
 ETOT  6  -358.61324889189    -2.966E-04 4.819E-03 4.999E-03
 ETOT  7  -358.61325029900    -1.407E-06 8.661E-04 8.788E-04
 ETOT  8  -358.61325055004    -2.510E-07 1.672E-03 2.024E-04
 ETOT  9  -358.61325063737    -8.733E-08 7.455E-04 4.474E-06
 ETOT 10  -358.61325063945    -2.079E-09 1.109E-03 2.405E-07
 ETOT 11  -358.61325063945     3.979E-13 8.182E-04 1.759E-07
 ETOT 12  -358.61325063952    -6.781E-11 8.469E-04 1.594E-08
 ETOT 13  -358.61325063952    -4.093E-12 5.086E-04 7.828E-10
 ETOT 14  -358.61325063952     8.527E-13 4.140E-04 6.724E-10
 ETOT 15  -358.61325063952    -1.194E-12 2.231E-04 1.937E-11
 ETOT 16  -358.61325063952     1.705E-13 2.261E-04 2.579E-12
 ETOT 17  -358.61325063952     1.080E-12 1.496E-04 1.018E-12
 ETOT 18  -358.61325063952    -2.274E-12 1.632E-04 1.092E-13
 ETOT 19  -358.61325063952     2.217E-12 1.247E-04 2.559E-14
 ETOT 20  -358.61325063952    -9.663E-13 1.797E-04 1.359E-15
 ETOT 21  -358.61325063952    -7.958E-13 1.081E-04 3.808E-16
 ETOT 22  -358.61325063952     9.095E-13 1.862E-04 7.320E-17
 ETOT 23  -358.61325063952    -5.684E-14 8.898E-05 2.296E-17
 ETOT 24  -358.61325063952    -7.390E-13 1.773E-04 9.127E-19
 
 At SCF step   24       vres2   =  9.13E-19 < tolvrs=  1.00E-18 =>converged.
 
 Cartesian components of stress tensor (hartree/bohr^3)
  sigma(1 1)= -2.93707453E-04  sigma(3 2)=  3.80368319E-07
  sigma(2 2)= -3.47165821E-04  sigma(3 1)= -1.56219375E-06
  sigma(3 3)= -5.73670714E-04  sigma(2 1)=  1.33204315E-05
 

--- !ResultsGS
iteration_state: {dtset: 1, }
comment   : Summary of ground state results
lattice_vectors:
- [  9.5914335,   0.0000000,   0.0000000, ]
- [  0.0000000,   9.5914335,   0.0000000, ]
- [  0.0000000,   0.0000000,   9.5914335, ]
lattice_lengths: [   9.59143,    9.59143,    9.59143, ]
lattice_angles: [ 90.000,  90.000,  90.000, ] # degrees, (23, 13, 12)
lattice_volume:   8.8236964E+02
convergence: {deltae: -7.390E-13, res2:  9.127E-19, residm:  1.773E-04, diffor: null, }
etotal    :  -3.58613251E+02
entropy   :   0.00000000E+00
fermie    :   2.84343619E-01
cartesian_stress_tensor: # hartree/bohr^3
- [ -2.93707453E-04,   1.33204315E-05,  -1.56219375E-06, ]
- [  1.33204315E-05,  -3.47165821E-04,   3.80368319E-07, ]
- [ -1.56219375E-06,   3.80368319E-07,  -5.73670714E-04, ]
pressure_GPa:   1.1911E+01
xred      :
- [  1.5892E-02,   9.6901E-03,  -8.9632E-04, Hf]
- [  1.5892E-02,   5.0971E-01,   4.9911E-01, Hf]
- [  4.8315E-01,   9.6901E-03,   4.9910E-01, Hf]
- [  4.8315E-01,   5.0971E-01,  -8.8088E-04, Hf]
- [  2.1139E-01,   2.5850E-01,   7.4083E-01,  O]
- [  2.1151E-01,   7.5832E-01,   7.6751E-01,  O]
- [  2.9309E-01,   7.5826E-01,   2.6758E-01,  O]
- [  2.9315E-01,   2.5848E-01,   2.4090E-01,  O]
- [  8.2496E-01,   1.4914E-01,   3.7378E-01,  O]
- [  8.2493E-01,   6.4933E-01,   1.3471E-01,  O]
- [  6.7971E-01,   6.4934E-01,   6.3478E-01,  O]
- [  6.7954E-01,   1.4912E-01,   8.7385E-01,  O]
cartesian_forces: # hartree/bohr
- [ -1.45064931E-02,   3.62094524E-03,   5.11470604E-02, ]
- [ -1.40604797E-02,   2.93925743E-03,  -3.90334602E-02, ]
- [  2.14776179E-02,   5.94282749E-03,   5.16709572E-02, ]
- [  2.03019171E-02,   4.85166183E-03,  -3.91867642E-02, ]
- [  1.11985805E-02,  -1.48584515E-03,  -4.19201676E-03, ]
- [  1.13220582E-02,  -7.20952760E-03,  -4.86580773E-03, ]
- [ -1.34125618E-02,  -8.54965718E-03,  -5.09164881E-03, ]
- [ -1.31691855E-02,  -2.02616590E-03,  -4.65670179E-03, ]
- [  6.35839797E-03,   1.98744880E-04,  -6.36996589E-03, ]
- [  2.13568742E-03,  -1.38855807E-03,   3.54116399E-03, ]
- [ -6.49072048E-03,   5.74154011E-04,   5.66609356E-03, ]
- [ -1.11548184E-02,   2.53216302E-03,  -8.62890970E-03, ]
force_length_stats: {min:   4.36223528E-03, max:   5.62716010E-02, mean:   2.40851190E-02, }
...

 Integrated electronic density in atomic spheres:
 ------------------------------------------------
 Atom  Sphere_radius  Integrated_density
    1        2.00000          8.35612238
    2        2.00000          8.34713784
    3        2.00000          8.35007041
    4        2.00000          8.34839061
    5        2.00000          6.41133543
    6        2.00000          6.41965848
    7        2.00000          6.43368466
    8        2.00000          6.42323097
    9        2.00000          6.33671942
   10        2.00000          6.33929064
   11        2.00000          6.33718716
   12        2.00000          6.34046993
================================================================================
 
 ----iterations are completed or convergence reached----
 
 Mean square residual over all n,k,spin=   20.586E-08; max=  17.726E-05
 reduced coordinates (array xred) for   12 atoms
       0.015891870000      0.009690150000     -0.000896320000
       0.015891740000      0.509708710000      0.499114850000
       0.483148750000      0.009690140000      0.499099390000
       0.483148810000      0.509708720000     -0.000880880000
       0.211386860000      0.258499820000      0.740831090000
       0.211510640000      0.758315950000      0.767505800000
       0.293088310000      0.758257600000      0.267577260000
       0.293151970000      0.258475600000      0.240898090000
       0.824955870000      0.149144160000      0.373779680000
       0.824932650000      0.649328040000      0.134712360000
       0.679706740000      0.649337010000      0.634779360000
       0.679542520000      0.149119000000      0.873851150000
 rms dE/dt=  1.6701E-01; max dE/dt=  3.7586E-01; dE/dt below (all hartree)
    1       0.139639136121     -0.034684666384     -0.490566301312
    2       0.135361228559     -0.028146303022      0.374394164364
    3      -0.205500070899     -0.056954845485     -0.495591222420
    4      -0.194223414825     -0.046489002689      0.375864569199
    5      -0.106909367335      0.014296774069      0.040214776620
    6      -0.108093695698      0.069195093578      0.046677397842
    7       0.129146766957      0.082048857333      0.048843537576
    8       0.126812439611      0.019479224578      0.044671772194
    9      -0.060485078726     -0.001860859198      0.061104430827
   10      -0.019983231381      0.013363651427     -0.033957512250
   11       0.062756386233     -0.005461570913     -0.054338632908
   12       0.107491770970     -0.024241684103      0.082770940098
 
 cartesian coordinates (angstrom) at end:
    1      0.08066026683216     0.04918301525520    -0.00454933310976
    2      0.08065960700832     2.58706121779728     2.53329136098480
    3      2.45225433474000     0.04918296449952     2.53321289270352
    4      2.45225463927408     2.58706126855296    -0.00447096633984
    5      1.07290838223648     1.31203341439776     3.76013857380912
    6      1.07353663604352     3.84888416970960     3.89552787829440
    7      1.48758964741008     3.84858801031680     1.35810657838368
    8      1.48791275806896     1.31191048414080     1.22269463686512
    9      4.18711961518416     0.75699132588288     1.89714418285824
   10      4.18700176049520     3.29570862132672     0.68374174362048
   11      3.44989777892832     3.29575414917168     3.22186580667648
   12      3.44906426915136     0.75686362459200     4.43529093370320
 
 cartesian forces (hartree/bohr) at end:
    1     -0.01450649309278     0.00362094524490     0.05114706039874
    2     -0.01406047972395     0.00293925742741    -0.03903346023791
    3      0.02147761787685     0.00594282748769     0.05167095717747
    4      0.02030191707182     0.00485166183367    -0.03918676420826
    5      0.01119858047556    -0.00148584515408    -0.00419201676306
    6      0.01132205819811    -0.00720952760184    -0.00486580772770
    7     -0.01341256180751    -0.00854965718410    -0.00509164881149
    8     -0.01316918553337    -0.00202616590118    -0.00465670179469
    9      0.00635839796651     0.00019874487995    -0.00636996589152
   10      0.00213568742051    -0.00138855806517     0.00354116399197
   11     -0.00649072047881     0.00057415401141     0.00566609356399
   12     -0.01115481837296     0.00253216302134    -0.00862890969754
 frms,max,avg= 1.7412022E-02 5.1670957E-02  -5.224E-05 -4.732E-06 -7.639E-07 h/b
 
 cartesian forces (eV/Angstrom) at end:
    1     -0.74595380451436     0.18619647519875     2.63008737192041
    2     -0.72301887687775     0.15114268117049    -2.00718105896511
    3      1.10442342368180     0.30559245061272     2.65702722518283
    4      1.04396646259028     0.24948246139808    -2.01506426541608
    5      0.57585411287725    -0.07640522340682    -0.21556215089316
    6      0.58220359212947    -0.37072878392806    -0.25020987245477
    7     -0.68970160083516    -0.43964101199258    -0.26182308693712
    8     -0.67718669068684    -0.10418963100820    -0.23945721395369
    9      0.32696194203533     0.01021987177612    -0.32755678860612
   10      0.10982145349623    -0.07140252057342     0.18209395856916
   11     -0.33376623862429     0.02952418385662     0.29136222130053
   12     -0.57360377527196     0.13020904689631    -0.44371633974687
 frms,max,avg= 8.9536208E-01 2.6570272E+00  -2.686E-03 -2.433E-04 -3.928E-05 e/A
 length scales=  9.591433488838  9.591433488838  9.591433488838 bohr
              =  5.075568000000  5.075568000000  5.075568000000 angstroms
 prteigrs : about to open file o_EIG
 Fermi (or HOMO) energy (hartree) =   0.28434   Average Vxc (hartree)=  -0.44642
 Eigenvalues (hartree) for nkpt= 112  k points:
 kpt#   1, nband= 50, wtk=  0.00463, kpt=  0.0000  0.0000  0.0000 (reduced coord)
  -1.94294   -1.94187   -1.94141   -1.94060   -0.80660   -0.80631   -0.80567   -0.79512
  -0.79379   -0.79338   -0.79319   -0.79260   -0.79117   -0.78770   -0.78759   -0.78724
  -0.40033   -0.34770   -0.34686   -0.34313   -0.31143   -0.30602   -0.30539   -0.30098
   0.06855    0.06866    0.07562    0.09573    0.10011    0.10965    0.16044    0.16393
   0.16726    0.16953    0.17481    0.18043    0.19924    0.20175    0.20963    0.21957
   0.22820    0.22988    0.23132    0.23307    0.24666    0.26279    0.28080    0.28434
   0.45656    0.46148
 prteigrs : prtvol=0 or 1, do not print more k-points.
 

--- !EnergyTerms
iteration_state     : {dtset: 1, }
comment             : Components of total free energy in Hartree
kinetic             :  1.46423600951752E+02
hartree             :  5.60849066760775E+01
xc                  : -9.09497042359896E+01
Ewald energy        : -2.69771363439419E+02
psp_core            :  1.49595106529080E+01
local_psp           : -2.06236487575795E+02
non_local_psp       : -9.12371366905503E+00
total_energy        : -3.58613250639521E+02
total_energy_eV     : -9.75836282043441E+03
band_energy         : -3.13109073567543E+01
...

 
 Cartesian components of stress tensor (hartree/bohr^3)
  sigma(1 1)= -2.93707453E-04  sigma(3 2)=  3.80368319E-07
  sigma(2 2)= -3.47165821E-04  sigma(3 1)= -1.56219375E-06
  sigma(3 3)= -5.73670714E-04  sigma(2 1)=  1.33204315E-05
 
-Cartesian components of stress tensor (GPa)         [Pressure=  1.1911E+01 GPa]
- sigma(1 1)= -8.64117014E+00  sigma(3 2)=  1.11908204E-02
- sigma(2 2)= -1.02139694E+01  sigma(3 1)= -4.59613193E-02
- sigma(3 3)= -1.68779723E+01  sigma(2 1)=  3.91900560E-01
 
== END DATASET(S) ==============================================================
================================================================================
  
 -outvars: echo values of variables after computation  --------
            acell      9.5914334888E+00  9.5914334888E+00  9.5914334888E+00 Bohr
              amu      1.78490000E+02  1.59994000E+01
          chkprim           0
             ecut      2.50000000E+01 Hartree
           ecutsm      5.00000000E-01 Hartree
           etotal     -3.5861325064E+02
            fcart     -1.4506493093E-02  3.6209452449E-03  5.1147060399E-02
                      -1.4060479724E-02  2.9392574274E-03 -3.9033460238E-02
                       2.1477617877E-02  5.9428274877E-03  5.1670957177E-02
                       2.0301917072E-02  4.8516618337E-03 -3.9186764208E-02
                       1.1198580476E-02 -1.4858451541E-03 -4.1920167631E-03
                       1.1322058198E-02 -7.2095276018E-03 -4.8658077277E-03
                      -1.3412561808E-02 -8.5496571841E-03 -5.0916488115E-03
                      -1.3169185533E-02 -2.0261659012E-03 -4.6567017947E-03
                       6.3583979665E-03  1.9874487995E-04 -6.3699658915E-03
                       2.1356874205E-03 -1.3885580652E-03  3.5411639920E-03
                      -6.4907204788E-03  5.7415401141E-04  5.6660935640E-03
                      -1.1154818373E-02  2.5321630213E-03 -8.6289096975E-03
-          fftalg         512
           istwfk        2    0    0    3    0    0    0    0    0    0
                         0    0    0    0    0    0    6    0    0    7
                         0    0    0    0    0    0    0    0    0    0
                         0    0    0    0    0    0    0    0    0    0
                         0    0    0    0    0    0    0    0    0    0
                       outvar_i_n : Printing only first  50 k-points.
              ixc          11
              kpt      0.00000000E+00  0.00000000E+00  0.00000000E+00
                       1.66666667E-01  0.00000000E+00  0.00000000E+00
                       3.33333333E-01  0.00000000E+00  0.00000000E+00
                       5.00000000E-01  0.00000000E+00  0.00000000E+00
                       0.00000000E+00  1.66666667E-01  0.00000000E+00
                       1.66666667E-01  1.66666667E-01  0.00000000E+00
                       3.33333333E-01  1.66666667E-01  0.00000000E+00
                       5.00000000E-01  1.66666667E-01  0.00000000E+00
                      -3.33333333E-01  1.66666667E-01  0.00000000E+00
                      -1.66666667E-01  1.66666667E-01  0.00000000E+00
                       0.00000000E+00  3.33333333E-01  0.00000000E+00
                       1.66666667E-01  3.33333333E-01  0.00000000E+00
                       3.33333333E-01  3.33333333E-01  0.00000000E+00
                       5.00000000E-01  3.33333333E-01  0.00000000E+00
                      -3.33333333E-01  3.33333333E-01  0.00000000E+00
                      -1.66666667E-01  3.33333333E-01  0.00000000E+00
                       0.00000000E+00  5.00000000E-01  0.00000000E+00
                       1.66666667E-01  5.00000000E-01  0.00000000E+00
                       3.33333333E-01  5.00000000E-01  0.00000000E+00
                       5.00000000E-01  5.00000000E-01  0.00000000E+00
                       0.00000000E+00  0.00000000E+00  1.66666667E-01
                       1.66666667E-01  0.00000000E+00  1.66666667E-01
                       3.33333333E-01  0.00000000E+00  1.66666667E-01
                       5.00000000E-01  0.00000000E+00  1.66666667E-01
                      -3.33333333E-01  0.00000000E+00  1.66666667E-01
                      -1.66666667E-01  0.00000000E+00  1.66666667E-01
                       0.00000000E+00  1.66666667E-01  1.66666667E-01
                       1.66666667E-01  1.66666667E-01  1.66666667E-01
                       3.33333333E-01  1.66666667E-01  1.66666667E-01
                       5.00000000E-01  1.66666667E-01  1.66666667E-01
                      -3.33333333E-01  1.66666667E-01  1.66666667E-01
                      -1.66666667E-01  1.66666667E-01  1.66666667E-01
                       0.00000000E+00  3.33333333E-01  1.66666667E-01
                       1.66666667E-01  3.33333333E-01  1.66666667E-01
                       3.33333333E-01  3.33333333E-01  1.66666667E-01
                       5.00000000E-01  3.33333333E-01  1.66666667E-01
                      -3.33333333E-01  3.33333333E-01  1.66666667E-01
                      -1.66666667E-01  3.33333333E-01  1.66666667E-01
                       0.00000000E+00  5.00000000E-01  1.66666667E-01
                       1.66666667E-01  5.00000000E-01  1.66666667E-01
                       3.33333333E-01  5.00000000E-01  1.66666667E-01
                       5.00000000E-01  5.00000000E-01  1.66666667E-01
                      -3.33333333E-01  5.00000000E-01  1.66666667E-01
                      -1.66666667E-01  5.00000000E-01  1.66666667E-01
                       0.00000000E+00 -3.33333333E-01  1.66666667E-01
                       1.66666667E-01 -3.33333333E-01  1.66666667E-01
                       3.33333333E-01 -3.33333333E-01  1.66666667E-01
                       5.00000000E-01 -3.33333333E-01  1.66666667E-01
                      -3.33333333E-01 -3.33333333E-01  1.66666667E-01
                      -1.66666667E-01 -3.33333333E-01  1.66666667E-01
                       outvar_i_n : Printing only first  50 k-points.
           kptopt           2
         kptrlatt        6    0    0      0    6    0      0    0    6
          kptrlen      5.75486009E+01
P           mkmem           4
            natom          12
            nband          50
            ngfft          45      45      45
             nkpt         112
            nstep         100
             nsym           1
           ntypat           2
              occ      2.000000  2.000000  2.000000  2.000000  2.000000  2.000000
                       2.000000  2.000000  2.000000  2.000000  2.000000  2.000000
                       2.000000  2.000000  2.000000  2.000000  2.000000  2.000000
                       2.000000  2.000000  2.000000  2.000000  2.000000  2.000000
                       2.000000  2.000000  2.000000  2.000000  2.000000  2.000000
                       2.000000  2.000000  2.000000  2.000000  2.000000  2.000000
                       2.000000  2.000000  2.000000  2.000000  2.000000  2.000000
                       2.000000  2.000000  2.000000  2.000000  2.000000  2.000000
                       0.000000  0.000000
        pawecutdg      2.50000000E+01 Hartree
         pawxcdev           0
          spgroup           1
           strten     -2.9370745261E-04 -3.4716582118E-04 -5.7367071367E-04
                       3.8036831895E-07 -1.5621937529E-06  1.3320431518E-05
        symmorphi           0
           tolmxf      1.00000000E-05
           tolvrs      1.00000000E-18
           tsmear      4.00000000E-02 Hartree
            typat      1  1  1  1  2  2  2  2  2  2  2  2
              wtk        0.00463    0.00926    0.00926    0.00463    0.00926    0.00926
                         0.00926    0.00926    0.00926    0.00926    0.00926    0.00926
                         0.00926    0.00926    0.00926    0.00926    0.00463    0.00926
                         0.00926    0.00463    0.00926    0.00926    0.00926    0.00926
                         0.00926    0.00926    0.00926    0.00926    0.00926    0.00926
                         0.00926    0.00926    0.00926    0.00926    0.00926    0.00926
                         0.00926    0.00926    0.00926    0.00926    0.00926    0.00926
                         0.00926    0.00926    0.00926    0.00926    0.00926    0.00926
                         0.00926    0.00926
                       outvars : Printing only first  50 k-points.
           xangst      8.0660266832E-02  4.9183015255E-02 -4.5493331098E-03
                       8.0659607008E-02  2.5870612178E+00  2.5332913610E+00
                       2.4522543347E+00  4.9182964500E-02  2.5332128927E+00
                       2.4522546393E+00  2.5870612686E+00 -4.4709663398E-03
                       1.0729083822E+00  1.3120334144E+00  3.7601385738E+00
                       1.0735366360E+00  3.8488841697E+00  3.8955278783E+00
                       1.4875896474E+00  3.8485880103E+00  1.3581065784E+00
                       1.4879127581E+00  1.3119104841E+00  1.2226946369E+00
                       4.1871196152E+00  7.5699132588E-01  1.8971441829E+00
                       4.1870017605E+00  3.2957086213E+00  6.8374174362E-01
                       3.4498977789E+00  3.2957541492E+00  3.2218658067E+00
                       3.4490642692E+00  7.5686362459E-01  4.4352909337E+00
            xcart      1.5242581412E-01  9.2942429222E-02 -8.5969936647E-03
                       1.5242456723E-01  4.8888371906E+00  4.7872268871E+00
                       4.6340891008E+00  9.2942333308E-02  4.7870786035E+00
                       4.6340896763E+00  4.8888372866E+00 -8.4489019316E-03
                       2.0275030081E+00  2.4793838304E+00  7.1056321262E+00
                       2.0286902357E+00  7.2733369980E+00  7.3614808330E+00
                       2.8111370317E+00  7.2727773378E+00  2.5664494924E+00
                       2.8117476224E+00  2.4791515259E+00  2.3105580078E+00
                       7.9125093583E+00  1.4305062909E+00  3.5850829402E+00
                       7.9122866452E+00  6.2279867081E+00  1.2920846411E+00
                       6.5193619886E+00  6.2280727433E+00  6.0884440115E+00
                       6.5177868834E+00  1.4302649704E+00  8.3814851844E+00
             xred      1.5891870000E-02  9.6901500000E-03 -8.9632000000E-04
                       1.5891740000E-02  5.0970871000E-01  4.9911485000E-01
                       4.8314875000E-01  9.6901400000E-03  4.9909939000E-01
                       4.8314881000E-01  5.0970872000E-01 -8.8088000000E-04
                       2.1138686000E-01  2.5849982000E-01  7.4083109000E-01
                       2.1151064000E-01  7.5831595000E-01  7.6750580000E-01
                       2.9308831000E-01  7.5825760000E-01  2.6757726000E-01
                       2.9315197000E-01  2.5847560000E-01  2.4089809000E-01
                       8.2495587000E-01  1.4914416000E-01  3.7377968000E-01
                       8.2493265000E-01  6.4932804000E-01  1.3471236000E-01
                       6.7970674000E-01  6.4933701000E-01  6.3477936000E-01
                       6.7954252000E-01  1.4911900000E-01  8.7385115000E-01
            znucl       72.00000    8.00000
 
================================================================================


- Timing analysis has been suppressed with timopt=0



================================================================================

 Suggested references for the acknowledgment of ABINIT usage.

 The users of ABINIT have little formal obligations with respect to the ABINIT group
 (those specified in the GNU General Public License, http://www.gnu.org/copyleft/gpl.txt).
 However, it is common practice in the scientific literature,
 to acknowledge the efforts of people that have made the research possible.
 In this spirit, please find below suggested citations of work written by ABINIT developers,
 corresponding to implementations inside of ABINIT that you have used in the present run.
 Note also that it will be of great value to readers of publications presenting these results,
 to read papers enabling them to understand the theoretical formalism and details
 of the ABINIT implementation.
 For information on why they are suggested, see also https://docs.abinit.org/theory/acknowledgments.
-
- [1] Specification of an extensible and portable file format for electronic structure and crystallographic data
- X. Gonze, C.-O. Almbladh, A. Cucca, D. Caliste, C. Freysoldt, M. Marques, V. Olevano, Y. Pouillon, M.J. Verstraete,
- Comput. Material Science 43, 1056 (2008).
- Comment: to be cited in case the ETSF_IO file format is used, i.e. iomode=3.
- DOI and bibtex: see https://docs.abinit.org/theory/bibliography/#gonze2008
-
- [2] The Abinit project: Impact, environment and recent developments.
- Computer Phys. Comm. 248, 107042 (2020).
- X.Gonze, B. Amadon, G. Antonius, F.Arnardi, L.Baguet, J.-M.Beuken,
- J.Bieder, F.Bottin, J.Bouchet, E.Bousquet, N.Brouwer, F.Bruneval,
- G.Brunin, T.Cavignac, J.-B. Charraud, Wei Chen, M.Cote, S.Cottenier,
- J.Denier, G.Geneste, Ph.Ghosez, M.Giantomassi, Y.Gillet, O.Gingras,
- D.R.Hamann, G.Hautier, Xu He, N.Helbig, N.Holzwarth, Y.Jia, F.Jollet,
- W.Lafargue-Dit-Hauret, K.Lejaeghere, M.A.L.Marques, A.Martin, C.Martins,
- H.P.C. Miranda, F.Naccarato, K. Persson, G.Petretto, V.Planes, Y.Pouillon,
- S.Prokhorenko, F.Ricci, G.-M.Rignanese, A.H.Romero, M.M.Schmitt, M.Torrent,
- M.J.van Setten, B.Van Troeye, M.J.Verstraete, G.Zerah and J.W.Zwanzig
- Comment: the fifth generic paper describing the ABINIT project.
- Note that a version of this paper, that is not formatted for Computer Phys. Comm. 
- is available at https://www.abinit.org/sites/default/files/ABINIT20.pdf .
- The licence allows the authors to put it on the Web.
- DOI and bibtex: see https://docs.abinit.org/theory/bibliography/#gonze2020
-
- [3] Optimized norm-conserving Vanderbilt pseudopotentials.
- D.R. Hamann, Phys. Rev. B 88, 085117 (2013).
- Comment: Some pseudopotential generated using the ONCVPSP code were used.
- DOI and bibtex: see https://docs.abinit.org/theory/bibliography/#hamann2013
-
- [4] ABINIT: Overview, and focus on selected capabilities
- J. Chem. Phys. 152, 124102 (2020).
- A. Romero, D.C. Allan, B. Amadon, G. Antonius, T. Applencourt, L.Baguet,
- J.Bieder, F.Bottin, J.Bouchet, E.Bousquet, F.Bruneval,
- G.Brunin, D.Caliste, M.Cote,
- J.Denier, C. Dreyer, Ph.Ghosez, M.Giantomassi, Y.Gillet, O.Gingras,
- D.R.Hamann, G.Hautier, F.Jollet, G. Jomard,
- A.Martin, 
- H.P.C. Miranda, F.Naccarato, G.Petretto, N.A. Pike, V.Planes,
- S.Prokhorenko, T. Rangel, F.Ricci, G.-M.Rignanese, M.Royo, M.Stengel, M.Torrent,
- M.J.van Setten, B.Van Troeye, M.J.Verstraete, J.Wiktor, J.W.Zwanziger, and X.Gonze.
- Comment: a global overview of ABINIT, with focus on selected capabilities .
- Note that a version of this paper, that is not formatted for J. Chem. Phys 
- is available at https://www.abinit.org/sites/default/files/ABINIT20_JPC.pdf .
- The licence allows the authors to put it on the Web.
- DOI and bibtex: see https://docs.abinit.org/theory/bibliography/#romero2020
-
- [5] Recent developments in the ABINIT software package.
- Computer Phys. Comm. 205, 106 (2016).
- X.Gonze, F.Jollet, F.Abreu Araujo, D.Adams, B.Amadon, T.Applencourt,
- C.Audouze, J.-M.Beuken, J.Bieder, A.Bokhanchuk, E.Bousquet, F.Bruneval
- D.Caliste, M.Cote, F.Dahm, F.Da Pieve, M.Delaveau, M.Di Gennaro,
- B.Dorado, C.Espejo, G.Geneste, L.Genovese, A.Gerossier, M.Giantomassi,
- Y.Gillet, D.R.Hamann, L.He, G.Jomard, J.Laflamme Janssen, S.Le Roux,
- A.Levitt, A.Lherbier, F.Liu, I.Lukacevic, A.Martin, C.Martins,
- M.J.T.Oliveira, S.Ponce, Y.Pouillon, T.Rangel, G.-M.Rignanese,
- A.H.Romero, B.Rousseau, O.Rubel, A.A.Shukri, M.Stankovski, M.Torrent,
- M.J.Van Setten, B.Van Troeye, M.J.Verstraete, D.Waroquier, J.Wiktor,
- B.Xu, A.Zhou, J.W.Zwanziger.
- Comment: the fourth generic paper describing the ABINIT project.
- Note that a version of this paper, that is not formatted for Computer Phys. Comm. 
- is available at https://www.abinit.org/sites/default/files/ABINIT16.pdf .
- The licence allows the authors to put it on the Web.
- DOI and bibtex: see https://docs.abinit.org/theory/bibliography/#gonze2016
-
- Proc.   0 individual time (sec): cpu=        131.2  wall=        134.4
 
================================================================================
 
 Calculation completed.
.Delivered   0 WARNINGs and   0 COMMENTs to log file.
+Overall time at end (sec) : cpu=       4779.3  wall=       4837.4
