
.Version 9.4.1 of ABINIT 
.(MPI version, prepared for a x86_64_linux_intel19.0 computer) 

.Copyright (C) 1998-2021 ABINIT group . 
 ABINIT comes with ABSOLUTELY NO WARRANTY.
 It is free software, and you are welcome to redistribute it
 under certain conditions (GNU General Public License,
 see ~abinit/COPYING or http://www.gnu.org/copyleft/gpl.txt).

 ABINIT is a project of the Universite Catholique de Louvain,
 Corning Inc. and other collaborators, see ~abinit/doc/developers/contributors.txt .
 Please read https://docs.abinit.org/theory/acknowledgments for suggested
 acknowledgments of the ABINIT effort.
 For more information, see https://www.abinit.org .

.Starting date : Sat  3 Jul 2021.
- ( at 07h59 )
  
- input  file    -> PATH7
- output file    -> PATH7.abo
- root for input  files -> i
- root for output files -> o
 
 
 Symmetries : space group P2 (#  3); Bravais mP (primitive monocl.)
================================================================================
 Values of the parameters that define the memory need of the present run
     intxc =       0    ionmov =       0      iscf =       7    lmnmax =       8
     lnmax =       8     mgfft =      45  mpssoang =       4    mqgrid =    3001
     natom =      12  nloc_mem =       1    nspden =       1   nspinor =       1
    nsppol =       1      nsym =       2    n1xccc =    2501    ntypat =       2
    occopt =       1   xclevel =       2
-    mband =          50        mffmem =           1         mkmem =           4
       mpw =        5280          nfft =       91125          nkpt =         112
================================================================================
P This job should need less than                      47.640 Mbytes of memory.
  Rough estimation (10% accuracy) of disk space for files :
_ WF disk file :    451.174 Mbytes ; DEN or POT disk file :      0.697 Mbytes.
================================================================================
 
--------------------------------------------------------------------------------
------------- Echo of variables that govern the present computation ------------
--------------------------------------------------------------------------------
-
- outvars: echo of selected default values                                      
-   iomode0 =  3 , fftalg0 =512 , wfoptalg0 =  0
-
- outvars: echo of global parameters not present in the input file              
-  max_nthreads =    0
-
 -outvars: echo values of preprocessed input variables --------
            acell      9.5914334888E+00  9.5914334888E+00  9.5914334888E+00 Bohr
              amu      1.78490000E+02  1.59994000E+01
          chkprim           0
             ecut      2.50000000E+01 Hartree
           ecutsm      5.00000000E-01 Hartree
-          fftalg         512
           istwfk        2    0    0    3    0    0    0    0    0    0
                         0    0    0    0    0    0    6    0    0    7
                         0    0    0    0    0    0    0    0    0    0
                         0    0    0    0    0    0    0    0    0    0
                         0    0    0    0    0    0    0    0    0    0
                       outvar_i_n : Printing only first  50 k-points.
              ixc          11
              kpt      0.00000000E+00  0.00000000E+00  0.00000000E+00
                       1.66666667E-01  0.00000000E+00  0.00000000E+00
                       3.33333333E-01  0.00000000E+00  0.00000000E+00
                       5.00000000E-01  0.00000000E+00  0.00000000E+00
                       0.00000000E+00  1.66666667E-01  0.00000000E+00
                       1.66666667E-01  1.66666667E-01  0.00000000E+00
                       3.33333333E-01  1.66666667E-01  0.00000000E+00
                       5.00000000E-01  1.66666667E-01  0.00000000E+00
                      -3.33333333E-01  1.66666667E-01  0.00000000E+00
                      -1.66666667E-01  1.66666667E-01  0.00000000E+00
                       0.00000000E+00  3.33333333E-01  0.00000000E+00
                       1.66666667E-01  3.33333333E-01  0.00000000E+00
                       3.33333333E-01  3.33333333E-01  0.00000000E+00
                       5.00000000E-01  3.33333333E-01  0.00000000E+00
                      -3.33333333E-01  3.33333333E-01  0.00000000E+00
                      -1.66666667E-01  3.33333333E-01  0.00000000E+00
                       0.00000000E+00  5.00000000E-01  0.00000000E+00
                       1.66666667E-01  5.00000000E-01  0.00000000E+00
                       3.33333333E-01  5.00000000E-01  0.00000000E+00
                       5.00000000E-01  5.00000000E-01  0.00000000E+00
                       0.00000000E+00  0.00000000E+00  1.66666667E-01
                       1.66666667E-01  0.00000000E+00  1.66666667E-01
                       3.33333333E-01  0.00000000E+00  1.66666667E-01
                       5.00000000E-01  0.00000000E+00  1.66666667E-01
                      -3.33333333E-01  0.00000000E+00  1.66666667E-01
                      -1.66666667E-01  0.00000000E+00  1.66666667E-01
                       0.00000000E+00  1.66666667E-01  1.66666667E-01
                       1.66666667E-01  1.66666667E-01  1.66666667E-01
                       3.33333333E-01  1.66666667E-01  1.66666667E-01
                       5.00000000E-01  1.66666667E-01  1.66666667E-01
                      -3.33333333E-01  1.66666667E-01  1.66666667E-01
                      -1.66666667E-01  1.66666667E-01  1.66666667E-01
                       0.00000000E+00  3.33333333E-01  1.66666667E-01
                       1.66666667E-01  3.33333333E-01  1.66666667E-01
                       3.33333333E-01  3.33333333E-01  1.66666667E-01
                       5.00000000E-01  3.33333333E-01  1.66666667E-01
                      -3.33333333E-01  3.33333333E-01  1.66666667E-01
                      -1.66666667E-01  3.33333333E-01  1.66666667E-01
                       0.00000000E+00  5.00000000E-01  1.66666667E-01
                       1.66666667E-01  5.00000000E-01  1.66666667E-01
                       3.33333333E-01  5.00000000E-01  1.66666667E-01
                       5.00000000E-01  5.00000000E-01  1.66666667E-01
                      -3.33333333E-01  5.00000000E-01  1.66666667E-01
                      -1.66666667E-01  5.00000000E-01  1.66666667E-01
                       0.00000000E+00 -3.33333333E-01  1.66666667E-01
                       1.66666667E-01 -3.33333333E-01  1.66666667E-01
                       3.33333333E-01 -3.33333333E-01  1.66666667E-01
                       5.00000000E-01 -3.33333333E-01  1.66666667E-01
                      -3.33333333E-01 -3.33333333E-01  1.66666667E-01
                      -1.66666667E-01 -3.33333333E-01  1.66666667E-01
                       outvar_i_n : Printing only first  50 k-points.
           kptopt           2
         kptrlatt        6    0    0      0    6    0      0    0    6
          kptrlen      5.75486009E+01
P           mkmem           4
            natom          12
            nband          50
            ngfft          45      45      45
             nkpt         112
            nstep         100
             nsym           2
           ntypat           2
              occ      2.000000  2.000000  2.000000  2.000000  2.000000  2.000000
                       2.000000  2.000000  2.000000  2.000000  2.000000  2.000000
                       2.000000  2.000000  2.000000  2.000000  2.000000  2.000000
                       2.000000  2.000000  2.000000  2.000000  2.000000  2.000000
                       2.000000  2.000000  2.000000  2.000000  2.000000  2.000000
                       2.000000  2.000000  2.000000  2.000000  2.000000  2.000000
                       2.000000  2.000000  2.000000  2.000000  2.000000  2.000000
                       2.000000  2.000000  2.000000  2.000000  2.000000  2.000000
                       0.000000  0.000000
        pawecutdg      2.50000000E+01 Hartree
         pawxcdev           0
          spgroup           3
        symmorphi           0
           symrel      1  0  0   0  1  0   0  0  1      -1  0  0   0  1  0   0  0 -1
           tolmxf      1.00000000E-05
           tolvrs      1.00000000E-18
           tsmear      4.00000000E-02 Hartree
            typat      1  1  1  1  2  2  2  2  2  2  2  2
              wtk        0.00463    0.00926    0.00926    0.00463    0.00926    0.00926
                         0.00926    0.00926    0.00926    0.00926    0.00926    0.00926
                         0.00926    0.00926    0.00926    0.00926    0.00463    0.00926
                         0.00926    0.00463    0.00926    0.00926    0.00926    0.00926
                         0.00926    0.00926    0.00926    0.00926    0.00926    0.00926
                         0.00926    0.00926    0.00926    0.00926    0.00926    0.00926
                         0.00926    0.00926    0.00926    0.00926    0.00926    0.00926
                         0.00926    0.00926    0.00926    0.00926    0.00926    0.00926
                         0.00926    0.00926
                       outvars : Printing only first  50 k-points.
           xangst      0.0000000000E+00 -1.0354158720E-05  0.0000000000E+00
                       0.0000000000E+00  2.5378220160E+00  2.5377840000E+00
                       2.5377840000E+00  2.0302272000E-07  2.5377840000E+00
                       2.5377840000E+00  2.5377561351E+00  0.0000000000E+00
                       1.2243616564E+00  1.2688880918E+00  3.5569684593E+00
                       1.2243190724E+00  3.8066720918E+00  4.0563422256E+00
                       1.3134533553E+00  3.8066799589E+00  1.5185562461E+00
                       1.3134339666E+00  1.2688959589E+00  1.0191864895E+00
                       3.8512063436E+00  1.2688880918E+00  1.5185995407E+00
                       3.8512489276E+00  3.8066720918E+00  1.0192257744E+00
                       3.7621146447E+00  3.8066799589E+00  3.5570117539E+00
                       3.7621340334E+00  1.2688959589E+00  4.0563815105E+00
            xcart      0.0000000000E+00 -1.9566524317E-05  0.0000000000E+00
                       0.0000000000E+00  4.7957885843E+00  4.7957167444E+00
                       4.7957167444E+00  3.8365733955E-07  4.7957167444E+00
                       4.7957167444E+00  4.7956640874E+00  0.0000000000E+00
                       2.3137082182E+00  2.3978509868E+00  6.7216962514E+00
                       2.3136277461E+00  7.1935677312E+00  7.6653759076E+00
                       2.4820671298E+00  7.1935825979E+00  2.8696554225E+00
                       2.4820304906E+00  2.3978658535E+00  1.9259833436E+00
                       7.2777252706E+00  2.3978509868E+00  2.8697372374E+00
                       7.2778057427E+00  7.1935677312E+00  1.9260575813E+00
                       7.1093663590E+00  7.1935825979E+00  6.7217780663E+00
                       7.1094029983E+00  2.3978658535E+00  7.6654501453E+00
             xred      0.0000000000E+00 -2.0400000000E-06  0.0000000000E+00
                       0.0000000000E+00  5.0000749000E-01  5.0000000000E-01
                       5.0000000000E-01  4.0000000000E-08  5.0000000000E-01
                       5.0000000000E-01  4.9999451000E-01  0.0000000000E+00
                       2.4122653000E-01  2.4999923000E-01  7.0080205000E-01
                       2.4121814000E-01  7.4999923000E-01  7.9918981000E-01
                       2.5877958000E-01  7.5000078000E-01  2.9918942000E-01
                       2.5877576000E-01  2.5000078000E-01  2.0080245000E-01
                       7.5877347000E-01  2.4999923000E-01  2.9919795000E-01
                       7.5878186000E-01  7.4999923000E-01  2.0081019000E-01
                       7.4122042000E-01  7.5000078000E-01  7.0081058000E-01
                       7.4122424000E-01  2.5000078000E-01  7.9919755000E-01
            znucl       72.00000    8.00000
 
================================================================================
 
 chkinp: Checking input parameters for consistency.
 
================================================================================
== DATASET  1 ==================================================================
-   mpi_nproc: 36, omp_nthreads: -1 (-1 if OMP is not activated)
-    --> not optimal distribution: autoparal keyword recommended in input file <--
 

--- !DatasetInfo
iteration_state: {dtset: 1, }
dimensions: {natom: 12, nkpt: 112, mband: 50, nsppol: 1, nspinor: 1, nspden: 1, mpw: 5280, }
cutoff_energies: {ecut:  25.0, pawecutdg:  25.0, }
electrons: {nelect:   9.60000000E+01, charge:   0.00000000E+00, occopt:   1.00000000E+00, tsmear:   4.00000000E-02, }
meta: {optdriver: 0, ionmov: 0, optcell: 0, iscf: 7, paral_kgb: 0, }
...

 Exchange-correlation functional for the present dataset will be:
  GGA: Perdew-Burke-Ernzerhof functional - ixc=11
 Citation for XC functional:
  J.P.Perdew, K.Burke, M.Ernzerhof, PRL 77, 3865 (1996)
 
 Real(R)+Recip(G) space primitive vectors, cartesian coordinates (Bohr,Bohr^-1):
 R(1)=  9.5914335  0.0000000  0.0000000  G(1)=  0.1042597  0.0000000  0.0000000
 R(2)=  0.0000000  9.5914335  0.0000000  G(2)=  0.0000000  0.1042597  0.0000000
 R(3)=  0.0000000  0.0000000  9.5914335  G(3)=  0.0000000  0.0000000  0.1042597
 Unit cell volume ucvol=  8.8236964E+02 bohr^3
 Angles (23,13,12)=  9.00000000E+01  9.00000000E+01  9.00000000E+01 degrees
 
 getcut: wavevector=  0.0000  0.0000  0.0000  ngfft=  45  45  45
         ecut(hartree)=     25.000   => boxcut(ratio)=   2.03814
 
--- Pseudopotential description ------------------------------------------------
- pspini: atom type   1  psp file is /workspace/jiahaoz/PACKAGE_INSTALL/abinit-9.4.1/pbe_s_sr/Hf.psp8
- pspatm: opening atomic psp file    /workspace/jiahaoz/PACKAGE_INSTALL/abinit-9.4.1/pbe_s_sr/Hf.psp8
- Hf    ONCVPSP  r_core=  1.72  1.72  1.72  2.43
- 72.00000  12.00000    160625                znucl, zion, pspdat
    8   11    3    4       600   0.00000      pspcod,pspxc,lmax,lloc,mmax,r2well
    5.99000000000000    5.40000000000000    0.00000000000000   rchrg,fchrg,qchrg
     nproj     2     2     2     2
     extension_switch     1
  pspatm : epsatm=   21.98649506
         --- l  ekb(1:nproj) -->
             0    5.812335   -0.521211
             1   -3.038329    2.466565
             2    2.060039    0.471534
             3    9.947446    0.353012
 pspatm: atomic psp has been read  and splines computed
 
- pspini: atom type   2  psp file is /workspace/jiahaoz/PACKAGE_INSTALL/abinit-9.4.1/pbe_s_sr/O.psp8
- pspatm: opening atomic psp file    /workspace/jiahaoz/PACKAGE_INSTALL/abinit-9.4.1/pbe_s_sr/O.psp8
- O     ONCVPSP  r_core=  1.36  1.46  1.26
-  8.00000   6.00000    151103                znucl, zion, pspdat
    8   11    2    4       600   0.00000      pspcod,pspxc,lmax,lloc,mmax,r2well
    5.99000000000000    4.00000000000000    0.00000000000000   rchrg,fchrg,qchrg
     nproj     2     2     1
     extension_switch     1
  pspatm : epsatm=    6.19401560
         --- l  ekb(1:nproj) -->
             0    5.257212    0.704241
             1   -5.135443   -1.451781
             2   -4.371486
 pspatm: atomic psp has been read  and splines computed
 
   1.31998181E+04                                ecore*ucvol(ha*bohr**3)
--------------------------------------------------------------------------------
 
_setup2: Arith. and geom. avg. npw (full set) are    5268.875    5268.869
 
================================================================================

--- !BeginCycle
iteration_state: {dtset: 1, }
solver: {iscf: 7, nstep: 100, nline: 4, wfoptalg: 0, }
tolerances: {tolvrs: 1.00E-18, }
...
 
     iter   Etot(hartree)      deltaE(h)  residm     vres2
 ETOT  1  -357.57488900835    -3.576E+02 3.163E-01 1.340E+03
 ETOT  2  -357.47348481608     1.014E-01 1.789E-02 1.638E+03
 ETOT  3  -358.60715562608    -1.134E+00 8.088E-03 4.304E+01
 ETOT  4  -358.63204569045    -2.489E-02 6.978E-03 4.879E-01
 ETOT  5  -358.63229380906    -2.481E-04 2.601E-03 6.212E-02
 ETOT  6  -358.63232370471    -2.990E-05 2.845E-03 1.105E-02
 ETOT  7  -358.63232972431    -6.020E-06 1.432E-03 1.967E-04
 ETOT  8  -358.63232978542    -6.111E-08 1.239E-03 9.660E-05
 ETOT  9  -358.63232983224    -4.682E-08 6.156E-04 1.894E-06
 ETOT 10  -358.63232983302    -7.779E-10 1.239E-03 1.598E-07
 ETOT 11  -358.63232983306    -4.746E-11 4.818E-04 9.624E-09
 ETOT 12  -358.63232983307    -2.103E-12 8.346E-04 3.700E-09
 ETOT 13  -358.63232983307    -2.615E-12 5.369E-04 3.890E-10
 ETOT 14  -358.63232983307    -6.253E-13 6.374E-04 4.109E-12
 ETOT 15  -358.63232983307     2.217E-12 4.433E-04 2.106E-13
 ETOT 16  -358.63232983307    -1.251E-12 4.697E-04 4.597E-14
 ETOT 17  -358.63232983307     3.979E-13 2.594E-04 1.773E-15
 ETOT 18  -358.63232983307    -1.137E-12 3.709E-04 2.989E-16
 ETOT 19  -358.63232983307     3.979E-13 1.438E-04 5.514E-17
 ETOT 20  -358.63232983307     7.390E-13 2.624E-04 1.065E-17
 ETOT 21  -358.63232983307    -1.364E-12 1.291E-04 3.797E-19
 
 At SCF step   21       vres2   =  3.80E-19 < tolvrs=  1.00E-18 =>converged.
 
 Cartesian components of stress tensor (hartree/bohr^3)
  sigma(1 1)= -1.85105903E-04  sigma(3 2)=  0.00000000E+00
  sigma(2 2)= -1.91412496E-04  sigma(3 1)=  3.33796650E-08
  sigma(3 3)= -4.89749117E-04  sigma(2 1)=  0.00000000E+00
 

--- !ResultsGS
iteration_state: {dtset: 1, }
comment   : Summary of ground state results
lattice_vectors:
- [  9.5914335,   0.0000000,   0.0000000, ]
- [  0.0000000,   9.5914335,   0.0000000, ]
- [  0.0000000,   0.0000000,   9.5914335, ]
lattice_lengths: [   9.59143,    9.59143,    9.59143, ]
lattice_angles: [ 90.000,  90.000,  90.000, ] # degrees, (23, 13, 12)
lattice_volume:   8.8236964E+02
convergence: {deltae: -1.364E-12, res2:  3.797E-19, residm:  1.291E-04, diffor: null, }
etotal    :  -3.58632330E+02
entropy   :   0.00000000E+00
fermie    :   2.76790630E-01
cartesian_stress_tensor: # hartree/bohr^3
- [ -1.85105903E-04,   0.00000000E+00,   3.33796650E-08, ]
- [  0.00000000E+00,  -1.91412496E-04,   0.00000000E+00, ]
- [  3.33796650E-08,   0.00000000E+00,  -4.89749117E-04, ]
pressure_GPa:   8.4955E+00
xred      :
- [  0.0000E+00,  -2.0400E-06,   0.0000E+00, Hf]
- [  0.0000E+00,   5.0001E-01,   5.0000E-01, Hf]
- [  5.0000E-01,   4.0000E-08,   5.0000E-01, Hf]
- [  5.0000E-01,   4.9999E-01,   0.0000E+00, Hf]
- [  2.4123E-01,   2.5000E-01,   7.0080E-01,  O]
- [  2.4122E-01,   7.5000E-01,   7.9919E-01,  O]
- [  2.5878E-01,   7.5000E-01,   2.9919E-01,  O]
- [  2.5878E-01,   2.5000E-01,   2.0080E-01,  O]
- [  7.5877E-01,   2.5000E-01,   2.9920E-01,  O]
- [  7.5878E-01,   7.5000E-01,   2.0081E-01,  O]
- [  7.4122E-01,   7.5000E-01,   7.0081E-01,  O]
- [  7.4122E-01,   2.5000E-01,   7.9920E-01,  O]
cartesian_forces: # hartree/bohr
- [  0.00000000E+00,   8.94657391E-03,   0.00000000E+00, ]
- [  0.00000000E+00,   8.93870323E-03,   0.00000000E+00, ]
- [  0.00000000E+00,   8.94275597E-03,   0.00000000E+00, ]
- [  0.00000000E+00,   8.95019718E-03,   0.00000000E+00, ]
- [  5.73628161E-03,  -4.47022169E-03,   6.76916083E-04, ]
- [  5.74050994E-03,  -4.47611894E-03,  -6.70295871E-04, ]
- [ -5.72982147E-03,  -4.46540571E-03,  -6.76966111E-04, ]
- [ -5.73584200E-03,  -4.47736880E-03,   6.73184832E-04, ]
- [ -5.73628161E-03,  -4.47022169E-03,  -6.76916083E-04, ]
- [ -5.74050994E-03,  -4.47611894E-03,   6.70295871E-04, ]
- [  5.72982147E-03,  -4.46540571E-03,   6.76966111E-04, ]
- [  5.73584200E-03,  -4.47736880E-03,  -6.73184832E-04, ]
force_length_stats: {min:   7.29581972E-03, max:   8.95019718E-03, mean:   7.85107515E-03, }
...

 Integrated electronic density in atomic spheres:
 ------------------------------------------------
 Atom  Sphere_radius  Integrated_density
    1        2.00000          8.30249084
    2        2.00000          8.32590033
    3        2.00000          8.32591245
    4        2.00000          8.32601710
    5        2.00000          6.37092183
    6        2.00000          6.37758027
    7        2.00000          6.36464295
    8        2.00000          6.37057305
    9        2.00000          6.37092183
   10        2.00000          6.37758027
   11        2.00000          6.36464295
   12        2.00000          6.37057305
================================================================================
 
 ----iterations are completed or convergence reached----
 
 Mean square residual over all n,k,spin=   31.486E-08; max=  12.911E-05
 reduced coordinates (array xred) for   12 atoms
       0.000000000000     -0.000002040000      0.000000000000
       0.000000000000      0.500007490000      0.500000000000
       0.500000000000      0.000000040000      0.500000000000
       0.500000000000      0.499994510000      0.000000000000
       0.241226530000      0.249999230000      0.700802050000
       0.241218140000      0.749999230000      0.799189810000
       0.258779580000      0.750000780000      0.299189420000
       0.258775760000      0.250000780000      0.200802450000
       0.758773470000      0.249999230000      0.299197950000
       0.758781860000      0.749999230000      0.200810190000
       0.741220420000      0.750000780000      0.700810580000
       0.741224240000      0.250000780000      0.799197550000
 rms dE/dt=  4.3687E-02; max dE/dt=  5.5060E-02; dE/dt below (all hartree)
    1       0.000000000000     -0.085827576588      0.000000000000
    2       0.000000000000     -0.085752085457      0.000000000000
    3       0.000000000000     -0.085790957035      0.000000000000
    4       0.000000000000     -0.085862328901      0.000000000000
    5      -0.055019163580      0.042858726099     -0.006492595583
    6      -0.055059719303      0.042915289172      0.006429098263
    7       0.054957201533      0.042812533929      0.006493075427
    8       0.055014947007      0.042927277069     -0.006456807542
    9       0.055019163580      0.042858726099      0.006492595583
   10       0.055059719303      0.042915289172     -0.006429098263
   11      -0.054957201533      0.042812533929     -0.006493075427
   12      -0.055014947007      0.042927277069      0.006456807542
 
 cartesian coordinates (angstrom) at end:
    1      0.00000000000000    -0.00001035415872     0.00000000000000
    2      0.00000000000000     2.53782201600432     2.53778400000000
    3      2.53778400000000     0.00000020302272     2.53778400000000
    4      2.53778400000000     2.53775613513168     0.00000000000000
    5      1.22436165641904     1.26888809181264     3.55696845931440
    6      1.22431907240352     3.80667209181264     4.05634222556208
    7      1.31345335530144     3.80667995894304     1.51855624609056
    8      1.31343396663168     1.26889595894304     1.01918648954160
    9      3.85120634358096     1.26888809181264     1.51859954068560
   10      3.85124892759648     3.80667209181264     1.01922577443792
   11      3.76211464469856     3.80667995894304     3.55701175390944
   12      3.76213403336832     1.26889595894304     4.05638151045840
 
 cartesian forces (hartree/bohr) at end:
    1      0.00000000000000     0.00894657391245     0.00000000000000
    2      0.00000000000000     0.00893870322962     0.00000000000000
    3      0.00000000000000     0.00894275596878     0.00000000000000
    4      0.00000000000000     0.00895019717831     0.00000000000000
    5      0.00573628161467    -0.00447022169339     0.00067691608255
    6      0.00574050994221    -0.00447611894255    -0.00067029587089
    7     -0.00572982147004    -0.00446540571149    -0.00067696611088
    8     -0.00573584199597    -0.00447736879715     0.00067318483198
    9     -0.00573628161467    -0.00447022169339    -0.00067691608255
   10     -0.00574050994221    -0.00447611894255     0.00067029587089
   11      0.00572982147004    -0.00446540571149     0.00067696611088
   12      0.00573584199597    -0.00447736879715    -0.00067318483198
 frms,max,avg= 4.5547506E-03 8.9501972E-03   0.000E+00  1.784E-06  0.000E+00 h/b
 
 cartesian forces (eV/Angstrom) at end:
    1      0.00000000000000     0.46005128907966     0.00000000000000
    2      0.00000000000000     0.45964656233021     0.00000000000000
    3      0.00000000000000     0.45985496253926     0.00000000000000
    4      0.00000000000000     0.46023760488612     0.00000000000000
    5      0.29497143567795    -0.22986802240100     0.03480842157293
    6      0.29518886500417    -0.23017127111953    -0.03446799663028
    7     -0.29463924171257    -0.22962037467497    -0.03481099413291
    8     -0.29494882957734    -0.23023554122212     0.03461655296998
    9     -0.29497143567795    -0.22986802240100    -0.03480842157293
   10     -0.29518886500417    -0.23017127111953     0.03446799663028
   11      0.29463924171257    -0.22962037467497     0.03481099413291
   12      0.29494882957734    -0.23023554122212    -0.03461655296998
 frms,max,avg= 2.3421467E-01 4.6023760E-01   0.000E+00  9.172E-05  0.000E+00 e/A
 length scales=  9.591433488838  9.591433488838  9.591433488838 bohr
              =  5.075568000000  5.075568000000  5.075568000000 angstroms
 prteigrs : about to open file o_EIG
 Fermi (or HOMO) energy (hartree) =   0.27679   Average Vxc (hartree)=  -0.44597
 Eigenvalues (hartree) for nkpt= 112  k points:
 kpt#   1, nband= 50, wtk=  0.00463, kpt=  0.0000  0.0000  0.0000 (reduced coord)
  -1.94339   -1.94273   -1.94270   -1.94270   -0.80518   -0.80517   -0.80480   -0.79319
  -0.79303   -0.79267   -0.79252   -0.79138   -0.79137   -0.78847   -0.78684   -0.78684
  -0.39513   -0.33853   -0.32910   -0.32904   -0.31894   -0.31574   -0.31568   -0.29719
   0.06025    0.06035    0.07207    0.09561    0.10256    0.10261    0.16364    0.16429
   0.16614    0.16721    0.17271    0.17292    0.22304    0.22312    0.22575    0.22840
   0.24694    0.25156    0.25431    0.25627    0.25824    0.26580    0.26599    0.27491
   0.44303    0.44557
 prteigrs : prtvol=0 or 1, do not print more k-points.
 

--- !EnergyTerms
iteration_state     : {dtset: 1, }
comment             : Components of total free energy in Hartree
kinetic             :  1.46221171574965E+02
hartree             :  5.59758176917575E+01
xc                  : -9.09105006413571E+01
Ewald energy        : -2.70098485212995E+02
psp_core            :  1.49595106529080E+01
local_psp           : -2.05664232577741E+02
non_local_psp       : -9.11561132060636E+00
total_energy        : -3.58632329833069E+02
total_energy_eV     : -9.75888199169378E+03
band_energy         : -3.11039013519471E+01
...

 
 Cartesian components of stress tensor (hartree/bohr^3)
  sigma(1 1)= -1.85105903E-04  sigma(3 2)=  0.00000000E+00
  sigma(2 2)= -1.91412496E-04  sigma(3 1)=  3.33796650E-08
  sigma(3 3)= -4.89749117E-04  sigma(2 1)=  0.00000000E+00
 
-Cartesian components of stress tensor (GPa)         [Pressure=  8.4955E+00 GPa]
- sigma(1 1)= -5.44600277E+00  sigma(3 2)=  0.00000000E+00
- sigma(2 2)= -5.63154911E+00  sigma(3 1)=  9.82063484E-04
- sigma(3 3)= -1.44089141E+01  sigma(2 1)=  0.00000000E+00
 
== END DATASET(S) ==============================================================
================================================================================
  
 -outvars: echo values of variables after computation  --------
            acell      9.5914334888E+00  9.5914334888E+00  9.5914334888E+00 Bohr
              amu      1.78490000E+02  1.59994000E+01
          chkprim           0
             ecut      2.50000000E+01 Hartree
           ecutsm      5.00000000E-01 Hartree
           etotal     -3.5863232983E+02
            fcart      0.0000000000E+00  8.9465739124E-03  0.0000000000E+00
                       0.0000000000E+00  8.9387032296E-03  0.0000000000E+00
                       0.0000000000E+00  8.9427559688E-03  0.0000000000E+00
                       0.0000000000E+00  8.9501971783E-03  0.0000000000E+00
                       5.7362816147E-03 -4.4702216934E-03  6.7691608255E-04
                       5.7405099422E-03 -4.4761189425E-03 -6.7029587089E-04
                      -5.7298214700E-03 -4.4654057115E-03 -6.7696611088E-04
                      -5.7358419960E-03 -4.4773687972E-03  6.7318483198E-04
                      -5.7362816147E-03 -4.4702216934E-03 -6.7691608255E-04
                      -5.7405099422E-03 -4.4761189425E-03  6.7029587089E-04
                       5.7298214700E-03 -4.4654057115E-03  6.7696611088E-04
                       5.7358419960E-03 -4.4773687972E-03 -6.7318483198E-04
-          fftalg         512
           istwfk        2    0    0    3    0    0    0    0    0    0
                         0    0    0    0    0    0    6    0    0    7
                         0    0    0    0    0    0    0    0    0    0
                         0    0    0    0    0    0    0    0    0    0
                         0    0    0    0    0    0    0    0    0    0
                       outvar_i_n : Printing only first  50 k-points.
              ixc          11
              kpt      0.00000000E+00  0.00000000E+00  0.00000000E+00
                       1.66666667E-01  0.00000000E+00  0.00000000E+00
                       3.33333333E-01  0.00000000E+00  0.00000000E+00
                       5.00000000E-01  0.00000000E+00  0.00000000E+00
                       0.00000000E+00  1.66666667E-01  0.00000000E+00
                       1.66666667E-01  1.66666667E-01  0.00000000E+00
                       3.33333333E-01  1.66666667E-01  0.00000000E+00
                       5.00000000E-01  1.66666667E-01  0.00000000E+00
                      -3.33333333E-01  1.66666667E-01  0.00000000E+00
                      -1.66666667E-01  1.66666667E-01  0.00000000E+00
                       0.00000000E+00  3.33333333E-01  0.00000000E+00
                       1.66666667E-01  3.33333333E-01  0.00000000E+00
                       3.33333333E-01  3.33333333E-01  0.00000000E+00
                       5.00000000E-01  3.33333333E-01  0.00000000E+00
                      -3.33333333E-01  3.33333333E-01  0.00000000E+00
                      -1.66666667E-01  3.33333333E-01  0.00000000E+00
                       0.00000000E+00  5.00000000E-01  0.00000000E+00
                       1.66666667E-01  5.00000000E-01  0.00000000E+00
                       3.33333333E-01  5.00000000E-01  0.00000000E+00
                       5.00000000E-01  5.00000000E-01  0.00000000E+00
                       0.00000000E+00  0.00000000E+00  1.66666667E-01
                       1.66666667E-01  0.00000000E+00  1.66666667E-01
                       3.33333333E-01  0.00000000E+00  1.66666667E-01
                       5.00000000E-01  0.00000000E+00  1.66666667E-01
                      -3.33333333E-01  0.00000000E+00  1.66666667E-01
                      -1.66666667E-01  0.00000000E+00  1.66666667E-01
                       0.00000000E+00  1.66666667E-01  1.66666667E-01
                       1.66666667E-01  1.66666667E-01  1.66666667E-01
                       3.33333333E-01  1.66666667E-01  1.66666667E-01
                       5.00000000E-01  1.66666667E-01  1.66666667E-01
                      -3.33333333E-01  1.66666667E-01  1.66666667E-01
                      -1.66666667E-01  1.66666667E-01  1.66666667E-01
                       0.00000000E+00  3.33333333E-01  1.66666667E-01
                       1.66666667E-01  3.33333333E-01  1.66666667E-01
                       3.33333333E-01  3.33333333E-01  1.66666667E-01
                       5.00000000E-01  3.33333333E-01  1.66666667E-01
                      -3.33333333E-01  3.33333333E-01  1.66666667E-01
                      -1.66666667E-01  3.33333333E-01  1.66666667E-01
                       0.00000000E+00  5.00000000E-01  1.66666667E-01
                       1.66666667E-01  5.00000000E-01  1.66666667E-01
                       3.33333333E-01  5.00000000E-01  1.66666667E-01
                       5.00000000E-01  5.00000000E-01  1.66666667E-01
                      -3.33333333E-01  5.00000000E-01  1.66666667E-01
                      -1.66666667E-01  5.00000000E-01  1.66666667E-01
                       0.00000000E+00 -3.33333333E-01  1.66666667E-01
                       1.66666667E-01 -3.33333333E-01  1.66666667E-01
                       3.33333333E-01 -3.33333333E-01  1.66666667E-01
                       5.00000000E-01 -3.33333333E-01  1.66666667E-01
                      -3.33333333E-01 -3.33333333E-01  1.66666667E-01
                      -1.66666667E-01 -3.33333333E-01  1.66666667E-01
                       outvar_i_n : Printing only first  50 k-points.
           kptopt           2
         kptrlatt        6    0    0      0    6    0      0    0    6
          kptrlen      5.75486009E+01
P           mkmem           4
            natom          12
            nband          50
            ngfft          45      45      45
             nkpt         112
            nstep         100
             nsym           2
           ntypat           2
              occ      2.000000  2.000000  2.000000  2.000000  2.000000  2.000000
                       2.000000  2.000000  2.000000  2.000000  2.000000  2.000000
                       2.000000  2.000000  2.000000  2.000000  2.000000  2.000000
                       2.000000  2.000000  2.000000  2.000000  2.000000  2.000000
                       2.000000  2.000000  2.000000  2.000000  2.000000  2.000000
                       2.000000  2.000000  2.000000  2.000000  2.000000  2.000000
                       2.000000  2.000000  2.000000  2.000000  2.000000  2.000000
                       2.000000  2.000000  2.000000  2.000000  2.000000  2.000000
                       0.000000  0.000000
        pawecutdg      2.50000000E+01 Hartree
         pawxcdev           0
          spgroup           3
           strten     -1.8510590297E-04 -1.9141249597E-04 -4.8974911711E-04
                       0.0000000000E+00  3.3379664964E-08  0.0000000000E+00
        symmorphi           0
           symrel      1  0  0   0  1  0   0  0  1      -1  0  0   0  1  0   0  0 -1
           tolmxf      1.00000000E-05
           tolvrs      1.00000000E-18
           tsmear      4.00000000E-02 Hartree
            typat      1  1  1  1  2  2  2  2  2  2  2  2
              wtk        0.00463    0.00926    0.00926    0.00463    0.00926    0.00926
                         0.00926    0.00926    0.00926    0.00926    0.00926    0.00926
                         0.00926    0.00926    0.00926    0.00926    0.00463    0.00926
                         0.00926    0.00463    0.00926    0.00926    0.00926    0.00926
                         0.00926    0.00926    0.00926    0.00926    0.00926    0.00926
                         0.00926    0.00926    0.00926    0.00926    0.00926    0.00926
                         0.00926    0.00926    0.00926    0.00926    0.00926    0.00926
                         0.00926    0.00926    0.00926    0.00926    0.00926    0.00926
                         0.00926    0.00926
                       outvars : Printing only first  50 k-points.
           xangst      0.0000000000E+00 -1.0354158720E-05  0.0000000000E+00
                       0.0000000000E+00  2.5378220160E+00  2.5377840000E+00
                       2.5377840000E+00  2.0302272000E-07  2.5377840000E+00
                       2.5377840000E+00  2.5377561351E+00  0.0000000000E+00
                       1.2243616564E+00  1.2688880918E+00  3.5569684593E+00
                       1.2243190724E+00  3.8066720918E+00  4.0563422256E+00
                       1.3134533553E+00  3.8066799589E+00  1.5185562461E+00
                       1.3134339666E+00  1.2688959589E+00  1.0191864895E+00
                       3.8512063436E+00  1.2688880918E+00  1.5185995407E+00
                       3.8512489276E+00  3.8066720918E+00  1.0192257744E+00
                       3.7621146447E+00  3.8066799589E+00  3.5570117539E+00
                       3.7621340334E+00  1.2688959589E+00  4.0563815105E+00
            xcart      0.0000000000E+00 -1.9566524317E-05  0.0000000000E+00
                       0.0000000000E+00  4.7957885843E+00  4.7957167444E+00
                       4.7957167444E+00  3.8365733955E-07  4.7957167444E+00
                       4.7957167444E+00  4.7956640874E+00  0.0000000000E+00
                       2.3137082182E+00  2.3978509868E+00  6.7216962514E+00
                       2.3136277461E+00  7.1935677312E+00  7.6653759076E+00
                       2.4820671298E+00  7.1935825979E+00  2.8696554225E+00
                       2.4820304906E+00  2.3978658535E+00  1.9259833436E+00
                       7.2777252706E+00  2.3978509868E+00  2.8697372374E+00
                       7.2778057427E+00  7.1935677312E+00  1.9260575813E+00
                       7.1093663590E+00  7.1935825979E+00  6.7217780663E+00
                       7.1094029983E+00  2.3978658535E+00  7.6654501453E+00
             xred      0.0000000000E+00 -2.0400000000E-06  0.0000000000E+00
                       0.0000000000E+00  5.0000749000E-01  5.0000000000E-01
                       5.0000000000E-01  4.0000000000E-08  5.0000000000E-01
                       5.0000000000E-01  4.9999451000E-01  0.0000000000E+00
                       2.4122653000E-01  2.4999923000E-01  7.0080205000E-01
                       2.4121814000E-01  7.4999923000E-01  7.9918981000E-01
                       2.5877958000E-01  7.5000078000E-01  2.9918942000E-01
                       2.5877576000E-01  2.5000078000E-01  2.0080245000E-01
                       7.5877347000E-01  2.4999923000E-01  2.9919795000E-01
                       7.5878186000E-01  7.4999923000E-01  2.0081019000E-01
                       7.4122042000E-01  7.5000078000E-01  7.0081058000E-01
                       7.4122424000E-01  2.5000078000E-01  7.9919755000E-01
            znucl       72.00000    8.00000
 
================================================================================


- Timing analysis has been suppressed with timopt=0



================================================================================

 Suggested references for the acknowledgment of ABINIT usage.

 The users of ABINIT have little formal obligations with respect to the ABINIT group
 (those specified in the GNU General Public License, http://www.gnu.org/copyleft/gpl.txt).
 However, it is common practice in the scientific literature,
 to acknowledge the efforts of people that have made the research possible.
 In this spirit, please find below suggested citations of work written by ABINIT developers,
 corresponding to implementations inside of ABINIT that you have used in the present run.
 Note also that it will be of great value to readers of publications presenting these results,
 to read papers enabling them to understand the theoretical formalism and details
 of the ABINIT implementation.
 For information on why they are suggested, see also https://docs.abinit.org/theory/acknowledgments.
-
- [1] Specification of an extensible and portable file format for electronic structure and crystallographic data
- X. Gonze, C.-O. Almbladh, A. Cucca, D. Caliste, C. Freysoldt, M. Marques, V. Olevano, Y. Pouillon, M.J. Verstraete,
- Comput. Material Science 43, 1056 (2008).
- Comment: to be cited in case the ETSF_IO file format is used, i.e. iomode=3.
- DOI and bibtex: see https://docs.abinit.org/theory/bibliography/#gonze2008
-
- [2] The Abinit project: Impact, environment and recent developments.
- Computer Phys. Comm. 248, 107042 (2020).
- X.Gonze, B. Amadon, G. Antonius, F.Arnardi, L.Baguet, J.-M.Beuken,
- J.Bieder, F.Bottin, J.Bouchet, E.Bousquet, N.Brouwer, F.Bruneval,
- G.Brunin, T.Cavignac, J.-B. Charraud, Wei Chen, M.Cote, S.Cottenier,
- J.Denier, G.Geneste, Ph.Ghosez, M.Giantomassi, Y.Gillet, O.Gingras,
- D.R.Hamann, G.Hautier, Xu He, N.Helbig, N.Holzwarth, Y.Jia, F.Jollet,
- W.Lafargue-Dit-Hauret, K.Lejaeghere, M.A.L.Marques, A.Martin, C.Martins,
- H.P.C. Miranda, F.Naccarato, K. Persson, G.Petretto, V.Planes, Y.Pouillon,
- S.Prokhorenko, F.Ricci, G.-M.Rignanese, A.H.Romero, M.M.Schmitt, M.Torrent,
- M.J.van Setten, B.Van Troeye, M.J.Verstraete, G.Zerah and J.W.Zwanzig
- Comment: the fifth generic paper describing the ABINIT project.
- Note that a version of this paper, that is not formatted for Computer Phys. Comm. 
- is available at https://www.abinit.org/sites/default/files/ABINIT20.pdf .
- The licence allows the authors to put it on the Web.
- DOI and bibtex: see https://docs.abinit.org/theory/bibliography/#gonze2020
-
- [3] Optimized norm-conserving Vanderbilt pseudopotentials.
- D.R. Hamann, Phys. Rev. B 88, 085117 (2013).
- Comment: Some pseudopotential generated using the ONCVPSP code were used.
- DOI and bibtex: see https://docs.abinit.org/theory/bibliography/#hamann2013
-
- [4] ABINIT: Overview, and focus on selected capabilities
- J. Chem. Phys. 152, 124102 (2020).
- A. Romero, D.C. Allan, B. Amadon, G. Antonius, T. Applencourt, L.Baguet,
- J.Bieder, F.Bottin, J.Bouchet, E.Bousquet, F.Bruneval,
- G.Brunin, D.Caliste, M.Cote,
- J.Denier, C. Dreyer, Ph.Ghosez, M.Giantomassi, Y.Gillet, O.Gingras,
- D.R.Hamann, G.Hautier, F.Jollet, G. Jomard,
- A.Martin, 
- H.P.C. Miranda, F.Naccarato, G.Petretto, N.A. Pike, V.Planes,
- S.Prokhorenko, T. Rangel, F.Ricci, G.-M.Rignanese, M.Royo, M.Stengel, M.Torrent,
- M.J.van Setten, B.Van Troeye, M.J.Verstraete, J.Wiktor, J.W.Zwanziger, and X.Gonze.
- Comment: a global overview of ABINIT, with focus on selected capabilities .
- Note that a version of this paper, that is not formatted for J. Chem. Phys 
- is available at https://www.abinit.org/sites/default/files/ABINIT20_JPC.pdf .
- The licence allows the authors to put it on the Web.
- DOI and bibtex: see https://docs.abinit.org/theory/bibliography/#romero2020
-
- [5] Recent developments in the ABINIT software package.
- Computer Phys. Comm. 205, 106 (2016).
- X.Gonze, F.Jollet, F.Abreu Araujo, D.Adams, B.Amadon, T.Applencourt,
- C.Audouze, J.-M.Beuken, J.Bieder, A.Bokhanchuk, E.Bousquet, F.Bruneval
- D.Caliste, M.Cote, F.Dahm, F.Da Pieve, M.Delaveau, M.Di Gennaro,
- B.Dorado, C.Espejo, G.Geneste, L.Genovese, A.Gerossier, M.Giantomassi,
- Y.Gillet, D.R.Hamann, L.He, G.Jomard, J.Laflamme Janssen, S.Le Roux,
- A.Levitt, A.Lherbier, F.Liu, I.Lukacevic, A.Martin, C.Martins,
- M.J.T.Oliveira, S.Ponce, Y.Pouillon, T.Rangel, G.-M.Rignanese,
- A.H.Romero, B.Rousseau, O.Rubel, A.A.Shukri, M.Stankovski, M.Torrent,
- M.J.Van Setten, B.Van Troeye, M.J.Verstraete, D.Waroquier, J.Wiktor,
- B.Xu, A.Zhou, J.W.Zwanziger.
- Comment: the fourth generic paper describing the ABINIT project.
- Note that a version of this paper, that is not formatted for Computer Phys. Comm. 
- is available at https://www.abinit.org/sites/default/files/ABINIT16.pdf .
- The licence allows the authors to put it on the Web.
- DOI and bibtex: see https://docs.abinit.org/theory/bibliography/#gonze2016
-
- Proc.   0 individual time (sec): cpu=        114.7  wall=        118.3
 
================================================================================
 
 Calculation completed.
.Delivered   0 WARNINGs and   0 COMMENTs to log file.
+Overall time at end (sec) : cpu=       4204.7  wall=       4259.1
