
.Version 9.4.1 of ABINIT 
.(MPI version, prepared for a x86_64_linux_intel19.0 computer) 

.Copyright (C) 1998-2021 ABINIT group . 
 ABINIT comes with ABSOLUTELY NO WARRANTY.
 It is free software, and you are welcome to redistribute it
 under certain conditions (GNU General Public License,
 see ~abinit/COPYING or http://www.gnu.org/copyleft/gpl.txt).

 ABINIT is a project of the Universite Catholique de Louvain,
 Corning Inc. and other collaborators, see ~abinit/doc/developers/contributors.txt .
 Please read https://docs.abinit.org/theory/acknowledgments for suggested
 acknowledgments of the ABINIT effort.
 For more information, see https://www.abinit.org .

.Starting date : Fri  2 Jul 2021.
- ( at 15h51 )
  
- input  file    -> PATH7
- output file    -> PATH7.abo
- root for input  files -> i
- root for output files -> o
 
 
 Symmetries : space group P2 (#  3); Bravais mP (primitive monocl.)
================================================================================
 Values of the parameters that define the memory need of the present run
     intxc =       0    ionmov =       0      iscf =       7    lmnmax =       8
     lnmax =       8     mgfft =      45  mpssoang =       4    mqgrid =    3001
     natom =      12  nloc_mem =       1    nspden =       1   nspinor =       1
    nsppol =       1      nsym =       2    n1xccc =    2501    ntypat =       2
    occopt =       1   xclevel =       2
-    mband =          50        mffmem =           1         mkmem =           4
       mpw =        5280          nfft =       91125          nkpt =         112
================================================================================
P This job should need less than                      47.640 Mbytes of memory.
  Rough estimation (10% accuracy) of disk space for files :
_ WF disk file :    451.174 Mbytes ; DEN or POT disk file :      0.697 Mbytes.
================================================================================
 
--------------------------------------------------------------------------------
------------- Echo of variables that govern the present computation ------------
--------------------------------------------------------------------------------
-
- outvars: echo of selected default values                                      
-   iomode0 =  3 , fftalg0 =512 , wfoptalg0 =  0
-
- outvars: echo of global parameters not present in the input file              
-  max_nthreads =    0
-
 -outvars: echo values of preprocessed input variables --------
            acell      9.5914334888E+00  9.5914334888E+00  9.5914334888E+00 Bohr
              amu      1.78490000E+02  1.59994000E+01
          chkprim           0
             ecut      2.50000000E+01 Hartree
           ecutsm      5.00000000E-01 Hartree
-          fftalg         512
           istwfk        2    0    0    3    0    0    0    0    0    0
                         0    0    0    0    0    0    6    0    0    7
                         0    0    0    0    0    0    0    0    0    0
                         0    0    0    0    0    0    0    0    0    0
                         0    0    0    0    0    0    0    0    0    0
                       outvar_i_n : Printing only first  50 k-points.
              ixc          11
              kpt      0.00000000E+00  0.00000000E+00  0.00000000E+00
                       1.66666667E-01  0.00000000E+00  0.00000000E+00
                       3.33333333E-01  0.00000000E+00  0.00000000E+00
                       5.00000000E-01  0.00000000E+00  0.00000000E+00
                       0.00000000E+00  1.66666667E-01  0.00000000E+00
                       1.66666667E-01  1.66666667E-01  0.00000000E+00
                       3.33333333E-01  1.66666667E-01  0.00000000E+00
                       5.00000000E-01  1.66666667E-01  0.00000000E+00
                      -3.33333333E-01  1.66666667E-01  0.00000000E+00
                      -1.66666667E-01  1.66666667E-01  0.00000000E+00
                       0.00000000E+00  3.33333333E-01  0.00000000E+00
                       1.66666667E-01  3.33333333E-01  0.00000000E+00
                       3.33333333E-01  3.33333333E-01  0.00000000E+00
                       5.00000000E-01  3.33333333E-01  0.00000000E+00
                      -3.33333333E-01  3.33333333E-01  0.00000000E+00
                      -1.66666667E-01  3.33333333E-01  0.00000000E+00
                       0.00000000E+00  5.00000000E-01  0.00000000E+00
                       1.66666667E-01  5.00000000E-01  0.00000000E+00
                       3.33333333E-01  5.00000000E-01  0.00000000E+00
                       5.00000000E-01  5.00000000E-01  0.00000000E+00
                       0.00000000E+00  0.00000000E+00  1.66666667E-01
                       1.66666667E-01  0.00000000E+00  1.66666667E-01
                       3.33333333E-01  0.00000000E+00  1.66666667E-01
                       5.00000000E-01  0.00000000E+00  1.66666667E-01
                      -3.33333333E-01  0.00000000E+00  1.66666667E-01
                      -1.66666667E-01  0.00000000E+00  1.66666667E-01
                       0.00000000E+00  1.66666667E-01  1.66666667E-01
                       1.66666667E-01  1.66666667E-01  1.66666667E-01
                       3.33333333E-01  1.66666667E-01  1.66666667E-01
                       5.00000000E-01  1.66666667E-01  1.66666667E-01
                      -3.33333333E-01  1.66666667E-01  1.66666667E-01
                      -1.66666667E-01  1.66666667E-01  1.66666667E-01
                       0.00000000E+00  3.33333333E-01  1.66666667E-01
                       1.66666667E-01  3.33333333E-01  1.66666667E-01
                       3.33333333E-01  3.33333333E-01  1.66666667E-01
                       5.00000000E-01  3.33333333E-01  1.66666667E-01
                      -3.33333333E-01  3.33333333E-01  1.66666667E-01
                      -1.66666667E-01  3.33333333E-01  1.66666667E-01
                       0.00000000E+00  5.00000000E-01  1.66666667E-01
                       1.66666667E-01  5.00000000E-01  1.66666667E-01
                       3.33333333E-01  5.00000000E-01  1.66666667E-01
                       5.00000000E-01  5.00000000E-01  1.66666667E-01
                      -3.33333333E-01  5.00000000E-01  1.66666667E-01
                      -1.66666667E-01  5.00000000E-01  1.66666667E-01
                       0.00000000E+00 -3.33333333E-01  1.66666667E-01
                       1.66666667E-01 -3.33333333E-01  1.66666667E-01
                       3.33333333E-01 -3.33333333E-01  1.66666667E-01
                       5.00000000E-01 -3.33333333E-01  1.66666667E-01
                      -3.33333333E-01 -3.33333333E-01  1.66666667E-01
                      -1.66666667E-01 -3.33333333E-01  1.66666667E-01
                       outvar_i_n : Printing only first  50 k-points.
           kptopt           2
         kptrlatt        6    0    0      0    6    0      0    0    6
          kptrlen      5.75486009E+01
P           mkmem           4
            natom          12
            nband          50
            ngfft          45      45      45
             nkpt         112
            nstep         100
             nsym           2
           ntypat           2
              occ      2.000000  2.000000  2.000000  2.000000  2.000000  2.000000
                       2.000000  2.000000  2.000000  2.000000  2.000000  2.000000
                       2.000000  2.000000  2.000000  2.000000  2.000000  2.000000
                       2.000000  2.000000  2.000000  2.000000  2.000000  2.000000
                       2.000000  2.000000  2.000000  2.000000  2.000000  2.000000
                       2.000000  2.000000  2.000000  2.000000  2.000000  2.000000
                       2.000000  2.000000  2.000000  2.000000  2.000000  2.000000
                       2.000000  2.000000  2.000000  2.000000  2.000000  2.000000
                       0.000000  0.000000
        pawecutdg      2.50000000E+01 Hartree
         pawxcdev           0
          spgroup           3
        symmorphi           0
           symrel      1  0  0   0  1  0   0  0  1      -1  0  0   0  1  0   0  0 -1
           tolmxf      1.00000000E-05
           tolvrs      1.00000000E-18
           tsmear      4.00000000E-02 Hartree
            typat      1  1  1  1  2  2  2  2  2  2  2  2
              wtk        0.00463    0.00926    0.00926    0.00463    0.00926    0.00926
                         0.00926    0.00926    0.00926    0.00926    0.00926    0.00926
                         0.00926    0.00926    0.00926    0.00926    0.00463    0.00926
                         0.00926    0.00463    0.00926    0.00926    0.00926    0.00926
                         0.00926    0.00926    0.00926    0.00926    0.00926    0.00926
                         0.00926    0.00926    0.00926    0.00926    0.00926    0.00926
                         0.00926    0.00926    0.00926    0.00926    0.00926    0.00926
                         0.00926    0.00926    0.00926    0.00926    0.00926    0.00926
                         0.00926    0.00926
                       outvars : Printing only first  50 k-points.
           xangst      0.0000000000E+00  0.0000000000E+00  0.0000000000E+00
                       0.0000000000E+00  2.5378323702E+00  2.5377840000E+00
                       2.5377840000E+00  1.0557181440E-05  2.5377840000E+00
                       2.5377840000E+00  2.5377664893E+00  0.0000000000E+00
                       1.2243616564E+00  1.2094147431E+00  3.5569684593E+00
                       1.2243190724E+00  3.7471987431E+00  4.0563422256E+00
                       1.3134533553E+00  3.7472066102E+00  1.5185562461E+00
                       1.3134339666E+00  1.2094226356E+00  1.0191864895E+00
                       3.8512063436E+00  1.2094147431E+00  1.5185995407E+00
                       3.8512489276E+00  3.7471987431E+00  1.0192257744E+00
                       3.7621146447E+00  3.7472066102E+00  3.5570117539E+00
                       3.7621340334E+00  1.2094226356E+00  4.0563815105E+00
            xcart      0.0000000000E+00  0.0000000000E+00  0.0000000000E+00
                       0.0000000000E+00  4.7958081508E+00  4.7957167444E+00
                       4.7957167444E+00  1.9950181657E-05  4.7957167444E+00
                       4.7957167444E+00  4.7956836540E+00  0.0000000000E+00
                       2.3137082182E+00  2.2854626455E+00  6.7216962514E+00
                       2.3136277461E+00  7.0811793900E+00  7.6653759076E+00
                       2.4820671298E+00  7.0811942567E+00  2.8696554225E+00
                       2.4820304906E+00  2.2854775602E+00  1.9259833436E+00
                       7.2777252706E+00  2.2854626455E+00  2.8697372374E+00
                       7.2778057427E+00  7.0811793900E+00  1.9260575813E+00
                       7.1093663590E+00  7.0811942567E+00  6.7217780663E+00
                       7.1094029983E+00  2.2854775602E+00  7.6654501453E+00
             xred      0.0000000000E+00  0.0000000000E+00  0.0000000000E+00
                       0.0000000000E+00  5.0000953000E-01  5.0000000000E-01
                       5.0000000000E-01  2.0800000000E-06  5.0000000000E-01
                       5.0000000000E-01  4.9999655000E-01  0.0000000000E+00
                       2.4122653000E-01  2.3828165500E-01  7.0080205000E-01
                       2.4121814000E-01  7.3828165500E-01  7.9918981000E-01
                       2.5877958000E-01  7.3828320500E-01  2.9918942000E-01
                       2.5877576000E-01  2.3828321000E-01  2.0080245000E-01
                       7.5877347000E-01  2.3828165500E-01  2.9919795000E-01
                       7.5878186000E-01  7.3828165500E-01  2.0081019000E-01
                       7.4122042000E-01  7.3828320500E-01  7.0081058000E-01
                       7.4122424000E-01  2.3828321000E-01  7.9919755000E-01
            znucl       72.00000    8.00000
 
================================================================================
 
 chkinp: Checking input parameters for consistency.
 
================================================================================
== DATASET  1 ==================================================================
-   mpi_nproc: 36, omp_nthreads: -1 (-1 if OMP is not activated)
-    --> not optimal distribution: autoparal keyword recommended in input file <--
 

--- !DatasetInfo
iteration_state: {dtset: 1, }
dimensions: {natom: 12, nkpt: 112, mband: 50, nsppol: 1, nspinor: 1, nspden: 1, mpw: 5280, }
cutoff_energies: {ecut:  25.0, pawecutdg:  25.0, }
electrons: {nelect:   9.60000000E+01, charge:   0.00000000E+00, occopt:   1.00000000E+00, tsmear:   4.00000000E-02, }
meta: {optdriver: 0, ionmov: 0, optcell: 0, iscf: 7, paral_kgb: 0, }
...

 Exchange-correlation functional for the present dataset will be:
  GGA: Perdew-Burke-Ernzerhof functional - ixc=11
 Citation for XC functional:
  J.P.Perdew, K.Burke, M.Ernzerhof, PRL 77, 3865 (1996)
 
 Real(R)+Recip(G) space primitive vectors, cartesian coordinates (Bohr,Bohr^-1):
 R(1)=  9.5914335  0.0000000  0.0000000  G(1)=  0.1042597  0.0000000  0.0000000
 R(2)=  0.0000000  9.5914335  0.0000000  G(2)=  0.0000000  0.1042597  0.0000000
 R(3)=  0.0000000  0.0000000  9.5914335  G(3)=  0.0000000  0.0000000  0.1042597
 Unit cell volume ucvol=  8.8236964E+02 bohr^3
 Angles (23,13,12)=  9.00000000E+01  9.00000000E+01  9.00000000E+01 degrees
 
 getcut: wavevector=  0.0000  0.0000  0.0000  ngfft=  45  45  45
         ecut(hartree)=     25.000   => boxcut(ratio)=   2.03814
 
--- Pseudopotential description ------------------------------------------------
- pspini: atom type   1  psp file is /workspace/jiahaoz/PACKAGE_INSTALL/abinit-9.4.1/pbe_s_sr/Hf.psp8
- pspatm: opening atomic psp file    /workspace/jiahaoz/PACKAGE_INSTALL/abinit-9.4.1/pbe_s_sr/Hf.psp8
- Hf    ONCVPSP  r_core=  1.72  1.72  1.72  2.43
- 72.00000  12.00000    160625                znucl, zion, pspdat
    8   11    3    4       600   0.00000      pspcod,pspxc,lmax,lloc,mmax,r2well
    5.99000000000000    5.40000000000000    0.00000000000000   rchrg,fchrg,qchrg
     nproj     2     2     2     2
     extension_switch     1
  pspatm : epsatm=   21.98649506
         --- l  ekb(1:nproj) -->
             0    5.812335   -0.521211
             1   -3.038329    2.466565
             2    2.060039    0.471534
             3    9.947446    0.353012
 pspatm: atomic psp has been read  and splines computed
 
- pspini: atom type   2  psp file is /workspace/jiahaoz/PACKAGE_INSTALL/abinit-9.4.1/pbe_s_sr/O.psp8
- pspatm: opening atomic psp file    /workspace/jiahaoz/PACKAGE_INSTALL/abinit-9.4.1/pbe_s_sr/O.psp8
- O     ONCVPSP  r_core=  1.36  1.46  1.26
-  8.00000   6.00000    151103                znucl, zion, pspdat
    8   11    2    4       600   0.00000      pspcod,pspxc,lmax,lloc,mmax,r2well
    5.99000000000000    4.00000000000000    0.00000000000000   rchrg,fchrg,qchrg
     nproj     2     2     1
     extension_switch     1
  pspatm : epsatm=    6.19401560
         --- l  ekb(1:nproj) -->
             0    5.257212    0.704241
             1   -5.135443   -1.451781
             2   -4.371486
 pspatm: atomic psp has been read  and splines computed
 
   1.31998181E+04                                ecore*ucvol(ha*bohr**3)
--------------------------------------------------------------------------------
 
_setup2: Arith. and geom. avg. npw (full set) are    5268.875    5268.869
 
================================================================================

--- !BeginCycle
iteration_state: {dtset: 1, }
solver: {iscf: 7, nstep: 100, nline: 4, wfoptalg: 0, }
tolerances: {tolvrs: 1.00E-18, }
...
 
     iter   Etot(hartree)      deltaE(h)  residm     vres2
 ETOT  1  -357.57867067046    -3.576E+02 3.105E-01 1.343E+03
 ETOT  2  -357.46891200020     1.098E-01 1.487E-02 1.648E+03
 ETOT  3  -358.60877756825    -1.140E+00 1.222E-02 4.295E+01
 ETOT  4  -358.63366515153    -2.489E-02 5.203E-03 4.885E-01
 ETOT  5  -358.63389995911    -2.348E-04 2.209E-03 8.569E-02
 ETOT  6  -358.63394286857    -4.291E-05 2.202E-03 1.008E-02
 ETOT  7  -358.63394845910    -5.591E-06 1.218E-03 2.549E-04
 ETOT  8  -358.63394853473    -7.563E-08 1.223E-03 1.163E-04
 ETOT  9  -358.63394859152    -5.679E-08 1.285E-03 1.499E-06
 ETOT 10  -358.63394859213    -6.091E-10 9.082E-04 1.269E-07
 ETOT 11  -358.63394859216    -2.899E-11 8.677E-04 2.625E-08
 ETOT 12  -358.63394859216    -6.139E-12 9.456E-04 1.192E-08
 ETOT 13  -358.63394859216    -2.615E-12 3.704E-04 6.330E-11
 ETOT 14  -358.63394859217    -4.547E-13 7.810E-04 7.029E-12
 ETOT 15  -358.63394859216     5.116E-13 1.960E-04 7.926E-13
 ETOT 16  -358.63394859217    -2.274E-13 5.812E-04 3.127E-14
 ETOT 17  -358.63394859217    -3.979E-13 1.643E-04 5.405E-15
 ETOT 18  -358.63394859217     3.411E-13 6.105E-04 3.403E-16
 ETOT 19  -358.63394859217    -2.160E-12 1.787E-04 1.114E-17
 ETOT 20  -358.63394859217     3.411E-13 5.257E-04 7.550E-19
 
 At SCF step   20       vres2   =  7.55E-19 < tolvrs=  1.00E-18 =>converged.
 
 Cartesian components of stress tensor (hartree/bohr^3)
  sigma(1 1)= -1.80236488E-04  sigma(3 2)=  0.00000000E+00
  sigma(2 2)= -1.83718767E-04  sigma(3 1)=  3.95769408E-08
  sigma(3 3)= -4.81692711E-04  sigma(2 1)=  0.00000000E+00
 

--- !ResultsGS
iteration_state: {dtset: 1, }
comment   : Summary of ground state results
lattice_vectors:
- [  9.5914335,   0.0000000,   0.0000000, ]
- [  0.0000000,   9.5914335,   0.0000000, ]
- [  0.0000000,   0.0000000,   9.5914335, ]
lattice_lengths: [   9.59143,    9.59143,    9.59143, ]
lattice_angles: [ 90.000,  90.000,  90.000, ] # degrees, (23, 13, 12)
lattice_volume:   8.8236964E+02
convergence: {deltae:  3.411E-13, res2:  7.550E-19, residm:  5.257E-04, diffor: null, }
etotal    :  -3.58633949E+02
entropy   :   0.00000000E+00
fermie    :   2.76909500E-01
cartesian_stress_tensor: # hartree/bohr^3
- [ -1.80236488E-04,   0.00000000E+00,   3.95769408E-08, ]
- [  0.00000000E+00,  -1.83718767E-04,   0.00000000E+00, ]
- [  3.95769408E-08,   0.00000000E+00,  -4.81692711E-04, ]
pressure_GPa:   8.2933E+00
xred      :
- [  0.0000E+00,   0.0000E+00,   0.0000E+00, Hf]
- [  0.0000E+00,   5.0001E-01,   5.0000E-01, Hf]
- [  5.0000E-01,   2.0800E-06,   5.0000E-01, Hf]
- [  5.0000E-01,   5.0000E-01,   0.0000E+00, Hf]
- [  2.4123E-01,   2.3828E-01,   7.0080E-01,  O]
- [  2.4122E-01,   7.3828E-01,   7.9919E-01,  O]
- [  2.5878E-01,   7.3828E-01,   2.9919E-01,  O]
- [  2.5878E-01,   2.3828E-01,   2.0080E-01,  O]
- [  7.5877E-01,   2.3828E-01,   2.9920E-01,  O]
- [  7.5878E-01,   7.3828E-01,   2.0081E-01,  O]
- [  7.4122E-01,   7.3828E-01,   7.0081E-01,  O]
- [  7.4122E-01,   2.3828E-01,   7.9920E-01,  O]
cartesian_forces: # hartree/bohr
- [  2.25875453E-21,  -1.75993280E-03,   0.00000000E+00, ]
- [  2.25875453E-21,  -1.76498758E-03,   0.00000000E+00, ]
- [  2.25875453E-21,  -1.76473330E-03,   0.00000000E+00, ]
- [  2.25875453E-21,  -1.75342278E-03,   0.00000000E+00, ]
- [ -1.95700646E-04,   8.89397358E-04,  -2.25959146E-05, ]
- [ -1.90205620E-04,   8.75890268E-04,   3.02688495E-05, ]
- [  2.05574171E-04,   8.74434828E-04,   2.44644035E-05, ]
- [  1.97941993E-04,   8.81815777E-04,  -2.74353098E-05, ]
- [  1.95700646E-04,   8.89397358E-04,   2.25959146E-05, ]
- [  1.90205620E-04,   8.75890268E-04,  -3.02688495E-05, ]
- [ -2.05574171E-04,   8.74434828E-04,  -2.44644035E-05, ]
- [ -1.97941993E-04,   8.81815777E-04,   2.74353098E-05, ]
force_length_stats: {min:   8.96815557E-04, max:   1.76498758E-03, mean:   1.18868174E-03, }
...

 Integrated electronic density in atomic spheres:
 ------------------------------------------------
 Atom  Sphere_radius  Integrated_density
    1        2.00000          8.30175465
    2        2.00000          8.32515773
    3        2.00000          8.32518248
    4        2.00000          8.32526874
    5        2.00000          6.36824398
    6        2.00000          6.37799052
    7        2.00000          6.36814988
    8        2.00000          6.37012363
    9        2.00000          6.36824398
   10        2.00000          6.37799052
   11        2.00000          6.36814988
   12        2.00000          6.37012363
================================================================================
 
 ----iterations are completed or convergence reached----
 
 Mean square residual over all n,k,spin=   82.506E-08; max=  52.571E-05
 reduced coordinates (array xred) for   12 atoms
       0.000000000000      0.000000000000      0.000000000000
       0.000000000000      0.500009530000      0.500000000000
       0.500000000000      0.000002080000      0.500000000000
       0.500000000000      0.499996550000      0.000000000000
       0.241226530000      0.238281655000      0.700802050000
       0.241218140000      0.738281655000      0.799189810000
       0.258779580000      0.738283205000      0.299189420000
       0.258775760000      0.238283210000      0.200802450000
       0.758773470000      0.238281655000      0.299197950000
       0.758781860000      0.738281655000      0.200810190000
       0.741220420000      0.738283205000      0.700810580000
       0.741224240000      0.238283210000      0.799197550000
 rms dE/dt=  6.9533E-03; max dE/dt=  1.6949E-02; dE/dt below (all hartree)
    1       0.000000000000      0.016900566774      0.000000000000
    2       0.000000000000      0.016949049335      0.000000000000
    3       0.000000000000      0.016946610434      0.000000000000
    4       0.000000000000      0.016838126353      0.000000000000
    5       0.001877049731     -0.008510307243      0.000216727212
    6       0.001824344549     -0.008380754892     -0.000290321656
    7      -0.001971750991     -0.008366795132     -0.000234648699
    8      -0.001898547459     -0.008437589012      0.000263143949
    9      -0.001877049731     -0.008510307243     -0.000216727212
   10      -0.001824344549     -0.008380754892      0.000290321656
   11       0.001971750991     -0.008366795132      0.000234648699
   12       0.001898547459     -0.008437589012     -0.000263143949
 
 cartesian coordinates (angstrom) at end:
    1      0.00000000000000     0.00000000000000     0.00000000000000
    2      0.00000000000000     2.53783237016304     2.53778400000000
    3      2.53778400000000     0.00001055718144     2.53778400000000
    4      2.53778400000000     2.53776648929040     0.00000000000000
    5      1.22436165641904     1.20941474310504     3.55696845931440
    6      1.22431907240352     3.74719874310504     4.05634222556208
    7      1.31345335530144     3.74720661023544     1.51855624609056
    8      1.31343396663168     1.20942263561328     1.01918648954160
    9      3.85120634358096     1.20941474310504     1.51859954068560
   10      3.85124892759648     3.74719874310504     1.01922577443792
   11      3.76211464469856     3.74720661023544     3.55701175390944
   12      3.76213403336832     1.20942263561328     4.05638151045840
 
 cartesian forces (hartree/bohr) at end:
    1      0.00000000000000    -0.00175993280169     0.00000000000000
    2      0.00000000000000    -0.00176498757909     0.00000000000000
    3      0.00000000000000    -0.00176473329998     0.00000000000000
    4      0.00000000000000    -0.00175342278204     0.00000000000000
    5     -0.00019570064608     0.00088939735800    -0.00002259591461
    6     -0.00019020561954     0.00087589026848     0.00003026884946
    7      0.00020557417126     0.00087443482804     0.00002446440346
    8      0.00019794199286     0.00088181577688    -0.00002743530979
    9      0.00019570064608     0.00088939735800     0.00002259591461
   10      0.00019020561954     0.00087589026848    -0.00003026884946
   11     -0.00020557417126     0.00087443482804    -0.00002446440346
   12     -0.00019794199286     0.00088181577688     0.00002743530979
 frms,max,avg= 7.2494457E-04 1.7649876E-03   0.000E+00 -2.115E-06  0.000E+00 h/b
 
 cartesian forces (eV/Angstrom) at end:
    1      0.00000000000000    -0.09049937574269     0.00000000000000
    2      0.00000000000000    -0.09075930282553     0.00000000000000
    3      0.00000000000000    -0.09074622726890     0.00000000000000
    4      0.00000000000000    -0.09016461710071     0.00000000000000
    5     -0.01006333098942     0.04573464714584    -0.00116192854878
    6     -0.00978076538759     0.04504008473546     0.00155648668989
    7      0.01057104802546     0.04496524298496     0.00125801010056
    8      0.01017858566508     0.04534478660266    -0.00141078023360
    9      0.01006333098942     0.04573464714584     0.00116192854878
   10      0.00978076538759     0.04504008473546    -0.00155648668989
   11     -0.01057104802546     0.04496524298496    -0.00125801010056
   12     -0.01017858566508     0.04534478660266     0.00141078023360
 frms,max,avg= 3.7278145E-02 9.0759303E-02   0.000E+00 -1.088E-04  0.000E+00 e/A
 length scales=  9.591433488838  9.591433488838  9.591433488838 bohr
              =  5.075568000000  5.075568000000  5.075568000000 angstroms
 prteigrs : about to open file o_EIG
 Fermi (or HOMO) energy (hartree) =   0.27691   Average Vxc (hartree)=  -0.44598
 Eigenvalues (hartree) for nkpt= 112  k points:
 kpt#   1, nband= 50, wtk=  0.00463, kpt=  0.0000  0.0000  0.0000 (reduced coord)
  -1.94343   -1.94276   -1.94274   -1.94273   -0.80514   -0.80510   -0.80478   -0.79346
  -0.79299   -0.79266   -0.79224   -0.79146   -0.79135   -0.78838   -0.78684   -0.78683
  -0.39512   -0.33821   -0.32936   -0.32886   -0.31890   -0.31612   -0.31570   -0.29758
   0.06043    0.06056    0.07192    0.09593    0.10287    0.10326    0.16210    0.16400
   0.16651    0.16836    0.17241    0.17244    0.22127    0.22391    0.22620    0.22880
   0.24697    0.25182    0.25428    0.25511    0.25606    0.26601    0.26811    0.27517
   0.44421    0.44566
 prteigrs : prtvol=0 or 1, do not print more k-points.
 

--- !EnergyTerms
iteration_state     : {dtset: 1, }
comment             : Components of total free energy in Hartree
kinetic             :  1.46213880618338E+02
hartree             :  5.59585291124218E+01
xc                  : -9.09089106219737E+01
Ewald energy        : -2.70116761947736E+02
psp_core            :  1.49595106529080E+01
local_psp           : -2.05624642234863E+02
non_local_psp       : -9.11555417126209E+00
total_energy        : -3.58633948592167E+02
total_energy_eV     : -9.75892604036896E+03
band_energy         : -3.11041260809540E+01
...

 
 Cartesian components of stress tensor (hartree/bohr^3)
  sigma(1 1)= -1.80236488E-04  sigma(3 2)=  0.00000000E+00
  sigma(2 2)= -1.83718767E-04  sigma(3 1)=  3.95769408E-08
  sigma(3 3)= -4.81692711E-04  sigma(2 1)=  0.00000000E+00
 
-Cartesian components of stress tensor (GPa)         [Pressure=  8.2933E+00 GPa]
- sigma(1 1)= -5.30273966E+00  sigma(3 2)=  0.00000000E+00
- sigma(2 2)= -5.40519184E+00  sigma(3 1)=  1.16439360E-03
- sigma(3 3)= -1.41718865E+01  sigma(2 1)=  0.00000000E+00
 
== END DATASET(S) ==============================================================
================================================================================
  
 -outvars: echo values of variables after computation  --------
            acell      9.5914334888E+00  9.5914334888E+00  9.5914334888E+00 Bohr
              amu      1.78490000E+02  1.59994000E+01
          chkprim           0
             ecut      2.50000000E+01 Hartree
           ecutsm      5.00000000E-01 Hartree
           etotal     -3.5863394859E+02
            fcart      2.2587545260E-21 -1.7599328017E-03  0.0000000000E+00
                       2.2587545260E-21 -1.7649875791E-03  0.0000000000E+00
                       2.2587545260E-21 -1.7647333000E-03  0.0000000000E+00
                       2.2587545260E-21 -1.7534227820E-03  0.0000000000E+00
                      -1.9570064608E-04  8.8939735800E-04 -2.2595914606E-05
                      -1.9020561954E-04  8.7589026848E-04  3.0268849464E-05
                       2.0557417126E-04  8.7443482804E-04  2.4464403458E-05
                       1.9794199286E-04  8.8181577688E-04 -2.7435309788E-05
                       1.9570064608E-04  8.8939735800E-04  2.2595914606E-05
                       1.9020561954E-04  8.7589026848E-04 -3.0268849464E-05
                      -2.0557417126E-04  8.7443482804E-04 -2.4464403458E-05
                      -1.9794199286E-04  8.8181577688E-04  2.7435309788E-05
-          fftalg         512
           istwfk        2    0    0    3    0    0    0    0    0    0
                         0    0    0    0    0    0    6    0    0    7
                         0    0    0    0    0    0    0    0    0    0
                         0    0    0    0    0    0    0    0    0    0
                         0    0    0    0    0    0    0    0    0    0
                       outvar_i_n : Printing only first  50 k-points.
              ixc          11
              kpt      0.00000000E+00  0.00000000E+00  0.00000000E+00
                       1.66666667E-01  0.00000000E+00  0.00000000E+00
                       3.33333333E-01  0.00000000E+00  0.00000000E+00
                       5.00000000E-01  0.00000000E+00  0.00000000E+00
                       0.00000000E+00  1.66666667E-01  0.00000000E+00
                       1.66666667E-01  1.66666667E-01  0.00000000E+00
                       3.33333333E-01  1.66666667E-01  0.00000000E+00
                       5.00000000E-01  1.66666667E-01  0.00000000E+00
                      -3.33333333E-01  1.66666667E-01  0.00000000E+00
                      -1.66666667E-01  1.66666667E-01  0.00000000E+00
                       0.00000000E+00  3.33333333E-01  0.00000000E+00
                       1.66666667E-01  3.33333333E-01  0.00000000E+00
                       3.33333333E-01  3.33333333E-01  0.00000000E+00
                       5.00000000E-01  3.33333333E-01  0.00000000E+00
                      -3.33333333E-01  3.33333333E-01  0.00000000E+00
                      -1.66666667E-01  3.33333333E-01  0.00000000E+00
                       0.00000000E+00  5.00000000E-01  0.00000000E+00
                       1.66666667E-01  5.00000000E-01  0.00000000E+00
                       3.33333333E-01  5.00000000E-01  0.00000000E+00
                       5.00000000E-01  5.00000000E-01  0.00000000E+00
                       0.00000000E+00  0.00000000E+00  1.66666667E-01
                       1.66666667E-01  0.00000000E+00  1.66666667E-01
                       3.33333333E-01  0.00000000E+00  1.66666667E-01
                       5.00000000E-01  0.00000000E+00  1.66666667E-01
                      -3.33333333E-01  0.00000000E+00  1.66666667E-01
                      -1.66666667E-01  0.00000000E+00  1.66666667E-01
                       0.00000000E+00  1.66666667E-01  1.66666667E-01
                       1.66666667E-01  1.66666667E-01  1.66666667E-01
                       3.33333333E-01  1.66666667E-01  1.66666667E-01
                       5.00000000E-01  1.66666667E-01  1.66666667E-01
                      -3.33333333E-01  1.66666667E-01  1.66666667E-01
                      -1.66666667E-01  1.66666667E-01  1.66666667E-01
                       0.00000000E+00  3.33333333E-01  1.66666667E-01
                       1.66666667E-01  3.33333333E-01  1.66666667E-01
                       3.33333333E-01  3.33333333E-01  1.66666667E-01
                       5.00000000E-01  3.33333333E-01  1.66666667E-01
                      -3.33333333E-01  3.33333333E-01  1.66666667E-01
                      -1.66666667E-01  3.33333333E-01  1.66666667E-01
                       0.00000000E+00  5.00000000E-01  1.66666667E-01
                       1.66666667E-01  5.00000000E-01  1.66666667E-01
                       3.33333333E-01  5.00000000E-01  1.66666667E-01
                       5.00000000E-01  5.00000000E-01  1.66666667E-01
                      -3.33333333E-01  5.00000000E-01  1.66666667E-01
                      -1.66666667E-01  5.00000000E-01  1.66666667E-01
                       0.00000000E+00 -3.33333333E-01  1.66666667E-01
                       1.66666667E-01 -3.33333333E-01  1.66666667E-01
                       3.33333333E-01 -3.33333333E-01  1.66666667E-01
                       5.00000000E-01 -3.33333333E-01  1.66666667E-01
                      -3.33333333E-01 -3.33333333E-01  1.66666667E-01
                      -1.66666667E-01 -3.33333333E-01  1.66666667E-01
                       outvar_i_n : Printing only first  50 k-points.
           kptopt           2
         kptrlatt        6    0    0      0    6    0      0    0    6
          kptrlen      5.75486009E+01
P           mkmem           4
            natom          12
            nband          50
            ngfft          45      45      45
             nkpt         112
            nstep         100
             nsym           2
           ntypat           2
              occ      2.000000  2.000000  2.000000  2.000000  2.000000  2.000000
                       2.000000  2.000000  2.000000  2.000000  2.000000  2.000000
                       2.000000  2.000000  2.000000  2.000000  2.000000  2.000000
                       2.000000  2.000000  2.000000  2.000000  2.000000  2.000000
                       2.000000  2.000000  2.000000  2.000000  2.000000  2.000000
                       2.000000  2.000000  2.000000  2.000000  2.000000  2.000000
                       2.000000  2.000000  2.000000  2.000000  2.000000  2.000000
                       2.000000  2.000000  2.000000  2.000000  2.000000  2.000000
                       0.000000  0.000000
        pawecutdg      2.50000000E+01 Hartree
         pawxcdev           0
          spgroup           3
           strten     -1.8023648790E-04 -1.8371876749E-04 -4.8169271133E-04
                       0.0000000000E+00  3.9576940849E-08  0.0000000000E+00
        symmorphi           0
           symrel      1  0  0   0  1  0   0  0  1      -1  0  0   0  1  0   0  0 -1
           tolmxf      1.00000000E-05
           tolvrs      1.00000000E-18
           tsmear      4.00000000E-02 Hartree
            typat      1  1  1  1  2  2  2  2  2  2  2  2
              wtk        0.00463    0.00926    0.00926    0.00463    0.00926    0.00926
                         0.00926    0.00926    0.00926    0.00926    0.00926    0.00926
                         0.00926    0.00926    0.00926    0.00926    0.00463    0.00926
                         0.00926    0.00463    0.00926    0.00926    0.00926    0.00926
                         0.00926    0.00926    0.00926    0.00926    0.00926    0.00926
                         0.00926    0.00926    0.00926    0.00926    0.00926    0.00926
                         0.00926    0.00926    0.00926    0.00926    0.00926    0.00926
                         0.00926    0.00926    0.00926    0.00926    0.00926    0.00926
                         0.00926    0.00926
                       outvars : Printing only first  50 k-points.
           xangst      0.0000000000E+00  0.0000000000E+00  0.0000000000E+00
                       0.0000000000E+00  2.5378323702E+00  2.5377840000E+00
                       2.5377840000E+00  1.0557181440E-05  2.5377840000E+00
                       2.5377840000E+00  2.5377664893E+00  0.0000000000E+00
                       1.2243616564E+00  1.2094147431E+00  3.5569684593E+00
                       1.2243190724E+00  3.7471987431E+00  4.0563422256E+00
                       1.3134533553E+00  3.7472066102E+00  1.5185562461E+00
                       1.3134339666E+00  1.2094226356E+00  1.0191864895E+00
                       3.8512063436E+00  1.2094147431E+00  1.5185995407E+00
                       3.8512489276E+00  3.7471987431E+00  1.0192257744E+00
                       3.7621146447E+00  3.7472066102E+00  3.5570117539E+00
                       3.7621340334E+00  1.2094226356E+00  4.0563815105E+00
            xcart      0.0000000000E+00  0.0000000000E+00  0.0000000000E+00
                       0.0000000000E+00  4.7958081508E+00  4.7957167444E+00
                       4.7957167444E+00  1.9950181657E-05  4.7957167444E+00
                       4.7957167444E+00  4.7956836540E+00  0.0000000000E+00
                       2.3137082182E+00  2.2854626455E+00  6.7216962514E+00
                       2.3136277461E+00  7.0811793900E+00  7.6653759076E+00
                       2.4820671298E+00  7.0811942567E+00  2.8696554225E+00
                       2.4820304906E+00  2.2854775602E+00  1.9259833436E+00
                       7.2777252706E+00  2.2854626455E+00  2.8697372374E+00
                       7.2778057427E+00  7.0811793900E+00  1.9260575813E+00
                       7.1093663590E+00  7.0811942567E+00  6.7217780663E+00
                       7.1094029983E+00  2.2854775602E+00  7.6654501453E+00
             xred      0.0000000000E+00  0.0000000000E+00  0.0000000000E+00
                       0.0000000000E+00  5.0000953000E-01  5.0000000000E-01
                       5.0000000000E-01  2.0800000000E-06  5.0000000000E-01
                       5.0000000000E-01  4.9999655000E-01  0.0000000000E+00
                       2.4122653000E-01  2.3828165500E-01  7.0080205000E-01
                       2.4121814000E-01  7.3828165500E-01  7.9918981000E-01
                       2.5877958000E-01  7.3828320500E-01  2.9918942000E-01
                       2.5877576000E-01  2.3828321000E-01  2.0080245000E-01
                       7.5877347000E-01  2.3828165500E-01  2.9919795000E-01
                       7.5878186000E-01  7.3828165500E-01  2.0081019000E-01
                       7.4122042000E-01  7.3828320500E-01  7.0081058000E-01
                       7.4122424000E-01  2.3828321000E-01  7.9919755000E-01
            znucl       72.00000    8.00000
 
================================================================================


- Timing analysis has been suppressed with timopt=0



================================================================================

 Suggested references for the acknowledgment of ABINIT usage.

 The users of ABINIT have little formal obligations with respect to the ABINIT group
 (those specified in the GNU General Public License, http://www.gnu.org/copyleft/gpl.txt).
 However, it is common practice in the scientific literature,
 to acknowledge the efforts of people that have made the research possible.
 In this spirit, please find below suggested citations of work written by ABINIT developers,
 corresponding to implementations inside of ABINIT that you have used in the present run.
 Note also that it will be of great value to readers of publications presenting these results,
 to read papers enabling them to understand the theoretical formalism and details
 of the ABINIT implementation.
 For information on why they are suggested, see also https://docs.abinit.org/theory/acknowledgments.
-
- [1] Specification of an extensible and portable file format for electronic structure and crystallographic data
- X. Gonze, C.-O. Almbladh, A. Cucca, D. Caliste, C. Freysoldt, M. Marques, V. Olevano, Y. Pouillon, M.J. Verstraete,
- Comput. Material Science 43, 1056 (2008).
- Comment: to be cited in case the ETSF_IO file format is used, i.e. iomode=3.
- DOI and bibtex: see https://docs.abinit.org/theory/bibliography/#gonze2008
-
- [2] The Abinit project: Impact, environment and recent developments.
- Computer Phys. Comm. 248, 107042 (2020).
- X.Gonze, B. Amadon, G. Antonius, F.Arnardi, L.Baguet, J.-M.Beuken,
- J.Bieder, F.Bottin, J.Bouchet, E.Bousquet, N.Brouwer, F.Bruneval,
- G.Brunin, T.Cavignac, J.-B. Charraud, Wei Chen, M.Cote, S.Cottenier,
- J.Denier, G.Geneste, Ph.Ghosez, M.Giantomassi, Y.Gillet, O.Gingras,
- D.R.Hamann, G.Hautier, Xu He, N.Helbig, N.Holzwarth, Y.Jia, F.Jollet,
- W.Lafargue-Dit-Hauret, K.Lejaeghere, M.A.L.Marques, A.Martin, C.Martins,
- H.P.C. Miranda, F.Naccarato, K. Persson, G.Petretto, V.Planes, Y.Pouillon,
- S.Prokhorenko, F.Ricci, G.-M.Rignanese, A.H.Romero, M.M.Schmitt, M.Torrent,
- M.J.van Setten, B.Van Troeye, M.J.Verstraete, G.Zerah and J.W.Zwanzig
- Comment: the fifth generic paper describing the ABINIT project.
- Note that a version of this paper, that is not formatted for Computer Phys. Comm. 
- is available at https://www.abinit.org/sites/default/files/ABINIT20.pdf .
- The licence allows the authors to put it on the Web.
- DOI and bibtex: see https://docs.abinit.org/theory/bibliography/#gonze2020
-
- [3] Optimized norm-conserving Vanderbilt pseudopotentials.
- D.R. Hamann, Phys. Rev. B 88, 085117 (2013).
- Comment: Some pseudopotential generated using the ONCVPSP code were used.
- DOI and bibtex: see https://docs.abinit.org/theory/bibliography/#hamann2013
-
- [4] ABINIT: Overview, and focus on selected capabilities
- J. Chem. Phys. 152, 124102 (2020).
- A. Romero, D.C. Allan, B. Amadon, G. Antonius, T. Applencourt, L.Baguet,
- J.Bieder, F.Bottin, J.Bouchet, E.Bousquet, F.Bruneval,
- G.Brunin, D.Caliste, M.Cote,
- J.Denier, C. Dreyer, Ph.Ghosez, M.Giantomassi, Y.Gillet, O.Gingras,
- D.R.Hamann, G.Hautier, F.Jollet, G. Jomard,
- A.Martin, 
- H.P.C. Miranda, F.Naccarato, G.Petretto, N.A. Pike, V.Planes,
- S.Prokhorenko, T. Rangel, F.Ricci, G.-M.Rignanese, M.Royo, M.Stengel, M.Torrent,
- M.J.van Setten, B.Van Troeye, M.J.Verstraete, J.Wiktor, J.W.Zwanziger, and X.Gonze.
- Comment: a global overview of ABINIT, with focus on selected capabilities .
- Note that a version of this paper, that is not formatted for J. Chem. Phys 
- is available at https://www.abinit.org/sites/default/files/ABINIT20_JPC.pdf .
- The licence allows the authors to put it on the Web.
- DOI and bibtex: see https://docs.abinit.org/theory/bibliography/#romero2020
-
- [5] Recent developments in the ABINIT software package.
- Computer Phys. Comm. 205, 106 (2016).
- X.Gonze, F.Jollet, F.Abreu Araujo, D.Adams, B.Amadon, T.Applencourt,
- C.Audouze, J.-M.Beuken, J.Bieder, A.Bokhanchuk, E.Bousquet, F.Bruneval
- D.Caliste, M.Cote, F.Dahm, F.Da Pieve, M.Delaveau, M.Di Gennaro,
- B.Dorado, C.Espejo, G.Geneste, L.Genovese, A.Gerossier, M.Giantomassi,
- Y.Gillet, D.R.Hamann, L.He, G.Jomard, J.Laflamme Janssen, S.Le Roux,
- A.Levitt, A.Lherbier, F.Liu, I.Lukacevic, A.Martin, C.Martins,
- M.J.T.Oliveira, S.Ponce, Y.Pouillon, T.Rangel, G.-M.Rignanese,
- A.H.Romero, B.Rousseau, O.Rubel, A.A.Shukri, M.Stankovski, M.Torrent,
- M.J.Van Setten, B.Van Troeye, M.J.Verstraete, D.Waroquier, J.Wiktor,
- B.Xu, A.Zhou, J.W.Zwanziger.
- Comment: the fourth generic paper describing the ABINIT project.
- Note that a version of this paper, that is not formatted for Computer Phys. Comm. 
- is available at https://www.abinit.org/sites/default/files/ABINIT16.pdf .
- The licence allows the authors to put it on the Web.
- DOI and bibtex: see https://docs.abinit.org/theory/bibliography/#gonze2016
-
- Proc.   0 individual time (sec): cpu=        110.2  wall=        113.3
 
================================================================================
 
 Calculation completed.
.Delivered   0 WARNINGs and   0 COMMENTs to log file.
+Overall time at end (sec) : cpu=       4022.5  wall=       4076.2
