
.Version 9.4.1 of ABINIT 
.(MPI version, prepared for a x86_64_linux_intel19.0 computer) 

.Copyright (C) 1998-2021 ABINIT group . 
 ABINIT comes with ABSOLUTELY NO WARRANTY.
 It is free software, and you are welcome to redistribute it
 under certain conditions (GNU General Public License,
 see ~abinit/COPYING or http://www.gnu.org/copyleft/gpl.txt).

 ABINIT is a project of the Universite Catholique de Louvain,
 Corning Inc. and other collaborators, see ~abinit/doc/developers/contributors.txt .
 Please read https://docs.abinit.org/theory/acknowledgments for suggested
 acknowledgments of the ABINIT effort.
 For more information, see https://www.abinit.org .

.Starting date : Sat  3 Jul 2021.
- ( at 07h58 )
  
- input  file    -> PATH3
- output file    -> PATH3.abo
- root for input  files -> i
- root for output files -> o
 
 
 Symmetries : space group P2 (#  3); Bravais mP (primitive monocl.)
================================================================================
 Values of the parameters that define the memory need of the present run
     intxc =       0    ionmov =       0      iscf =       7    lmnmax =       8
     lnmax =       8     mgfft =      45  mpssoang =       4    mqgrid =    3001
     natom =      12  nloc_mem =       1    nspden =       1   nspinor =       1
    nsppol =       1      nsym =       2    n1xccc =    2501    ntypat =       2
    occopt =       1   xclevel =       2
-    mband =          50        mffmem =           1         mkmem =           4
       mpw =        5280          nfft =       91125          nkpt =         112
================================================================================
P This job should need less than                      47.640 Mbytes of memory.
  Rough estimation (10% accuracy) of disk space for files :
_ WF disk file :    451.174 Mbytes ; DEN or POT disk file :      0.697 Mbytes.
================================================================================
 
--------------------------------------------------------------------------------
------------- Echo of variables that govern the present computation ------------
--------------------------------------------------------------------------------
-
- outvars: echo of selected default values                                      
-   iomode0 =  3 , fftalg0 =512 , wfoptalg0 =  0
-
- outvars: echo of global parameters not present in the input file              
-  max_nthreads =    0
-
 -outvars: echo values of preprocessed input variables --------
            acell      9.5914334888E+00  9.5914334888E+00  9.5914334888E+00 Bohr
              amu      1.78490000E+02  1.59994000E+01
          chkprim           0
             ecut      2.50000000E+01 Hartree
           ecutsm      5.00000000E-01 Hartree
-          fftalg         512
           istwfk        2    0    0    3    0    0    0    0    0    0
                         0    0    0    0    0    0    6    0    0    7
                         0    0    0    0    0    0    0    0    0    0
                         0    0    0    0    0    0    0    0    0    0
                         0    0    0    0    0    0    0    0    0    0
                       outvar_i_n : Printing only first  50 k-points.
              ixc          11
              kpt      0.00000000E+00  0.00000000E+00  0.00000000E+00
                       1.66666667E-01  0.00000000E+00  0.00000000E+00
                       3.33333333E-01  0.00000000E+00  0.00000000E+00
                       5.00000000E-01  0.00000000E+00  0.00000000E+00
                       0.00000000E+00  1.66666667E-01  0.00000000E+00
                       1.66666667E-01  1.66666667E-01  0.00000000E+00
                       3.33333333E-01  1.66666667E-01  0.00000000E+00
                       5.00000000E-01  1.66666667E-01  0.00000000E+00
                      -3.33333333E-01  1.66666667E-01  0.00000000E+00
                      -1.66666667E-01  1.66666667E-01  0.00000000E+00
                       0.00000000E+00  3.33333333E-01  0.00000000E+00
                       1.66666667E-01  3.33333333E-01  0.00000000E+00
                       3.33333333E-01  3.33333333E-01  0.00000000E+00
                       5.00000000E-01  3.33333333E-01  0.00000000E+00
                      -3.33333333E-01  3.33333333E-01  0.00000000E+00
                      -1.66666667E-01  3.33333333E-01  0.00000000E+00
                       0.00000000E+00  5.00000000E-01  0.00000000E+00
                       1.66666667E-01  5.00000000E-01  0.00000000E+00
                       3.33333333E-01  5.00000000E-01  0.00000000E+00
                       5.00000000E-01  5.00000000E-01  0.00000000E+00
                       0.00000000E+00  0.00000000E+00  1.66666667E-01
                       1.66666667E-01  0.00000000E+00  1.66666667E-01
                       3.33333333E-01  0.00000000E+00  1.66666667E-01
                       5.00000000E-01  0.00000000E+00  1.66666667E-01
                      -3.33333333E-01  0.00000000E+00  1.66666667E-01
                      -1.66666667E-01  0.00000000E+00  1.66666667E-01
                       0.00000000E+00  1.66666667E-01  1.66666667E-01
                       1.66666667E-01  1.66666667E-01  1.66666667E-01
                       3.33333333E-01  1.66666667E-01  1.66666667E-01
                       5.00000000E-01  1.66666667E-01  1.66666667E-01
                      -3.33333333E-01  1.66666667E-01  1.66666667E-01
                      -1.66666667E-01  1.66666667E-01  1.66666667E-01
                       0.00000000E+00  3.33333333E-01  1.66666667E-01
                       1.66666667E-01  3.33333333E-01  1.66666667E-01
                       3.33333333E-01  3.33333333E-01  1.66666667E-01
                       5.00000000E-01  3.33333333E-01  1.66666667E-01
                      -3.33333333E-01  3.33333333E-01  1.66666667E-01
                      -1.66666667E-01  3.33333333E-01  1.66666667E-01
                       0.00000000E+00  5.00000000E-01  1.66666667E-01
                       1.66666667E-01  5.00000000E-01  1.66666667E-01
                       3.33333333E-01  5.00000000E-01  1.66666667E-01
                       5.00000000E-01  5.00000000E-01  1.66666667E-01
                      -3.33333333E-01  5.00000000E-01  1.66666667E-01
                      -1.66666667E-01  5.00000000E-01  1.66666667E-01
                       0.00000000E+00 -3.33333333E-01  1.66666667E-01
                       1.66666667E-01 -3.33333333E-01  1.66666667E-01
                       3.33333333E-01 -3.33333333E-01  1.66666667E-01
                       5.00000000E-01 -3.33333333E-01  1.66666667E-01
                      -3.33333333E-01 -3.33333333E-01  1.66666667E-01
                      -1.66666667E-01 -3.33333333E-01  1.66666667E-01
                       outvar_i_n : Printing only first  50 k-points.
           kptopt           2
         kptrlatt        6    0    0      0    6    0      0    0    6
          kptrlen      5.75486009E+01
P           mkmem           4
            natom          12
            nband          50
            ngfft          45      45      45
             nkpt         112
            nstep         100
             nsym           2
           ntypat           2
              occ      2.000000  2.000000  2.000000  2.000000  2.000000  2.000000
                       2.000000  2.000000  2.000000  2.000000  2.000000  2.000000
                       2.000000  2.000000  2.000000  2.000000  2.000000  2.000000
                       2.000000  2.000000  2.000000  2.000000  2.000000  2.000000
                       2.000000  2.000000  2.000000  2.000000  2.000000  2.000000
                       2.000000  2.000000  2.000000  2.000000  2.000000  2.000000
                       2.000000  2.000000  2.000000  2.000000  2.000000  2.000000
                       2.000000  2.000000  2.000000  2.000000  2.000000  2.000000
                       0.000000  0.000000
        pawecutdg      2.50000000E+01 Hartree
         pawxcdev           0
          spgroup           3
        symmorphi           0
           symrel      1  0  0   0  1  0   0  0  1      -1  0  0   0  1  0   0  0 -1
           tolmxf      1.00000000E-05
           tolvrs      1.00000000E-18
           tsmear      4.00000000E-02 Hartree
            typat      1  1  1  1  2  2  2  2  2  2  2  2
              wtk        0.00463    0.00926    0.00926    0.00463    0.00926    0.00926
                         0.00926    0.00926    0.00926    0.00926    0.00926    0.00926
                         0.00926    0.00926    0.00926    0.00926    0.00463    0.00926
                         0.00926    0.00463    0.00926    0.00926    0.00926    0.00926
                         0.00926    0.00926    0.00926    0.00926    0.00926    0.00926
                         0.00926    0.00926    0.00926    0.00926    0.00926    0.00926
                         0.00926    0.00926    0.00926    0.00926    0.00926    0.00926
                         0.00926    0.00926    0.00926    0.00926    0.00926    0.00926
                         0.00926    0.00926
                       outvars : Printing only first  50 k-points.
           xangst      0.0000000000E+00 -8.5269542400E-06  0.0000000000E+00
                       0.0000000000E+00  2.5378079567E+00  2.5377840000E+00
                       2.5377840000E+00 -2.4870283200E-06  2.5377840000E+00
                       2.5377840000E+00  2.5377710573E+00  0.0000000000E+00
                       1.2497356897E+00  1.2688149021E+00  3.5603843673E+00
                       1.2498831350E+00  3.8065989021E+00  4.0529316469E+00
                       1.2878921858E+00  3.8067530979E+00  1.5151438402E+00
                       1.2880570402E+00  1.2689690979E+00  1.0226041740E+00
                       3.8258323103E+00  1.2688149021E+00  1.5151836327E+00
                       3.8256848650E+00  3.8065989021E+00  1.0226363531E+00
                       3.7876758142E+00  3.8067530979E+00  3.5604241598E+00
                       3.7875109598E+00  1.2689690979E+00  4.0529638260E+00
            xcart      0.0000000000E+00 -1.6113608261E-05  0.0000000000E+00
                       0.0000000000E+00  4.7957620160E+00  4.7957167444E+00
                       4.7957167444E+00 -4.6998024095E-06  4.7957167444E+00
                       4.7957167444E+00  4.7956922863E+00  0.0000000000E+00
                       2.3616581921E+00  2.3977126783E+00  6.7281513821E+00
                       2.3619368233E+00  7.1934294228E+00  7.6589308479E+00
                       2.4337635198E+00  7.1937208105E+00  2.8632069099E+00
                       2.4340750496E+00  2.3980040661E+00  1.9324418312E+00
                       7.2297752967E+00  2.3977126783E+00  2.8632821068E+00
                       7.2294966656E+00  7.1934294228E+00  1.9325026409E+00
                       7.1576699690E+00  7.1937208105E+00  6.7282265789E+00
                       7.1573584393E+00  2.3980040661E+00  7.6589916576E+00
             xred      0.0000000000E+00 -1.6800000000E-06  0.0000000000E+00
                       0.0000000000E+00  5.0000472000E-01  5.0000000000E-01
                       5.0000000000E-01 -4.9000000000E-07  5.0000000000E-01
                       5.0000000000E-01  4.9999745000E-01  0.0000000000E+00
                       2.4622578000E-01  2.4998481000E-01  7.0147506000E-01
                       2.4625483000E-01  7.4998481000E-01  7.9851785000E-01
                       2.5374346000E-01  7.5001519000E-01  2.9851710000E-01
                       2.5377594000E-01  2.5001519000E-01  2.0147581000E-01
                       7.5377422000E-01  2.4998481000E-01  2.9852494000E-01
                       7.5374517000E-01  7.4998481000E-01  2.0148215000E-01
                       7.4625654000E-01  7.5001519000E-01  7.0148290000E-01
                       7.4622406000E-01  2.5001519000E-01  7.9852419000E-01
            znucl       72.00000    8.00000
 
================================================================================
 
 chkinp: Checking input parameters for consistency.
 
================================================================================
== DATASET  1 ==================================================================
-   mpi_nproc: 36, omp_nthreads: -1 (-1 if OMP is not activated)
-    --> not optimal distribution: autoparal keyword recommended in input file <--
 

--- !DatasetInfo
iteration_state: {dtset: 1, }
dimensions: {natom: 12, nkpt: 112, mband: 50, nsppol: 1, nspinor: 1, nspden: 1, mpw: 5280, }
cutoff_energies: {ecut:  25.0, pawecutdg:  25.0, }
electrons: {nelect:   9.60000000E+01, charge:   0.00000000E+00, occopt:   1.00000000E+00, tsmear:   4.00000000E-02, }
meta: {optdriver: 0, ionmov: 0, optcell: 0, iscf: 7, paral_kgb: 0, }
...

 Exchange-correlation functional for the present dataset will be:
  GGA: Perdew-Burke-Ernzerhof functional - ixc=11
 Citation for XC functional:
  J.P.Perdew, K.Burke, M.Ernzerhof, PRL 77, 3865 (1996)
 
 Real(R)+Recip(G) space primitive vectors, cartesian coordinates (Bohr,Bohr^-1):
 R(1)=  9.5914335  0.0000000  0.0000000  G(1)=  0.1042597  0.0000000  0.0000000
 R(2)=  0.0000000  9.5914335  0.0000000  G(2)=  0.0000000  0.1042597  0.0000000
 R(3)=  0.0000000  0.0000000  9.5914335  G(3)=  0.0000000  0.0000000  0.1042597
 Unit cell volume ucvol=  8.8236964E+02 bohr^3
 Angles (23,13,12)=  9.00000000E+01  9.00000000E+01  9.00000000E+01 degrees
 
 getcut: wavevector=  0.0000  0.0000  0.0000  ngfft=  45  45  45
         ecut(hartree)=     25.000   => boxcut(ratio)=   2.03814
 
--- Pseudopotential description ------------------------------------------------
- pspini: atom type   1  psp file is /workspace/jiahaoz/PACKAGE_INSTALL/abinit-9.4.1/pbe_s_sr/Hf.psp8
- pspatm: opening atomic psp file    /workspace/jiahaoz/PACKAGE_INSTALL/abinit-9.4.1/pbe_s_sr/Hf.psp8
- Hf    ONCVPSP  r_core=  1.72  1.72  1.72  2.43
- 72.00000  12.00000    160625                znucl, zion, pspdat
    8   11    3    4       600   0.00000      pspcod,pspxc,lmax,lloc,mmax,r2well
    5.99000000000000    5.40000000000000    0.00000000000000   rchrg,fchrg,qchrg
     nproj     2     2     2     2
     extension_switch     1
  pspatm : epsatm=   21.98649506
         --- l  ekb(1:nproj) -->
             0    5.812335   -0.521211
             1   -3.038329    2.466565
             2    2.060039    0.471534
             3    9.947446    0.353012
 pspatm: atomic psp has been read  and splines computed
 
- pspini: atom type   2  psp file is /workspace/jiahaoz/PACKAGE_INSTALL/abinit-9.4.1/pbe_s_sr/O.psp8
- pspatm: opening atomic psp file    /workspace/jiahaoz/PACKAGE_INSTALL/abinit-9.4.1/pbe_s_sr/O.psp8
- O     ONCVPSP  r_core=  1.36  1.46  1.26
-  8.00000   6.00000    151103                znucl, zion, pspdat
    8   11    2    4       600   0.00000      pspcod,pspxc,lmax,lloc,mmax,r2well
    5.99000000000000    4.00000000000000    0.00000000000000   rchrg,fchrg,qchrg
     nproj     2     2     1
     extension_switch     1
  pspatm : epsatm=    6.19401560
         --- l  ekb(1:nproj) -->
             0    5.257212    0.704241
             1   -5.135443   -1.451781
             2   -4.371486
 pspatm: atomic psp has been read  and splines computed
 
   1.31998181E+04                                ecore*ucvol(ha*bohr**3)
--------------------------------------------------------------------------------
 
_setup2: Arith. and geom. avg. npw (full set) are    5268.875    5268.869
 
================================================================================

--- !BeginCycle
iteration_state: {dtset: 1, }
solver: {iscf: 7, nstep: 100, nline: 4, wfoptalg: 0, }
tolerances: {tolvrs: 1.00E-18, }
...
 
     iter   Etot(hartree)      deltaE(h)  residm     vres2
 ETOT  1  -357.57669900101    -3.576E+02 3.041E-01 1.343E+03
 ETOT  2  -357.47194046298     1.048E-01 1.787E-02 1.643E+03
 ETOT  3  -358.60860180671    -1.137E+00 1.406E-02 4.331E+01
 ETOT  4  -358.63364769507    -2.505E-02 3.776E-03 4.620E-01
 ETOT  5  -358.63388367578    -2.360E-04 1.993E-03 5.781E-02
 ETOT  6  -358.63391146551    -2.779E-05 3.002E-03 1.144E-02
 ETOT  7  -358.63391769245    -6.227E-06 1.333E-03 1.800E-04
 ETOT  8  -358.63391776295    -7.050E-08 1.477E-03 6.941E-05
 ETOT  9  -358.63391779574    -3.279E-08 1.006E-03 1.878E-06
 ETOT 10  -358.63391779647    -7.273E-10 8.105E-04 1.534E-07
 ETOT 11  -358.63391779652    -4.889E-11 5.949E-04 6.354E-09
 ETOT 12  -358.63391779652    -2.160E-12 6.233E-04 1.329E-09
 ETOT 13  -358.63391779652    -1.251E-12 4.845E-04 5.736E-10
 ETOT 14  -358.63391779652     1.648E-12 6.164E-04 3.999E-12
 ETOT 15  -358.63391779652    -1.194E-12 4.185E-04 2.420E-13
 ETOT 16  -358.63391779652     4.547E-13 7.563E-04 5.979E-14
 ETOT 17  -358.63391779652    -7.390E-13 4.119E-04 1.530E-15
 ETOT 18  -358.63391779652     0.000E+00 8.626E-04 2.428E-16
 ETOT 19  -358.63391779652     1.137E-13 4.122E-04 2.478E-17
 ETOT 20  -358.63391779652    -8.527E-13 7.259E-04 1.635E-18
 ETOT 21  -358.63391779652     1.364E-12 3.067E-04 1.860E-19
 
 At SCF step   21       vres2   =  1.86E-19 < tolvrs=  1.00E-18 =>converged.
 
 Cartesian components of stress tensor (hartree/bohr^3)
  sigma(1 1)= -1.74682045E-04  sigma(3 2)=  0.00000000E+00
  sigma(2 2)= -1.75857330E-04  sigma(3 1)=  1.94203416E-08
  sigma(3 3)= -4.77989321E-04  sigma(2 1)=  0.00000000E+00
 

--- !ResultsGS
iteration_state: {dtset: 1, }
comment   : Summary of ground state results
lattice_vectors:
- [  9.5914335,   0.0000000,   0.0000000, ]
- [  0.0000000,   9.5914335,   0.0000000, ]
- [  0.0000000,   0.0000000,   9.5914335, ]
lattice_lengths: [   9.59143,    9.59143,    9.59143, ]
lattice_angles: [ 90.000,  90.000,  90.000, ] # degrees, (23, 13, 12)
lattice_volume:   8.8236964E+02
convergence: {deltae:  1.364E-12, res2:  1.860E-19, residm:  3.067E-04, diffor: null, }
etotal    :  -3.58633918E+02
entropy   :   0.00000000E+00
fermie    :   2.77074630E-01
cartesian_stress_tensor: # hartree/bohr^3
- [ -1.74682045E-04,   0.00000000E+00,   1.94203416E-08, ]
- [  0.00000000E+00,  -1.75857330E-04,   0.00000000E+00, ]
- [  1.94203416E-08,   0.00000000E+00,  -4.77989321E-04, ]
pressure_GPa:   8.1254E+00
xred      :
- [  0.0000E+00,  -1.6800E-06,   0.0000E+00, Hf]
- [  0.0000E+00,   5.0000E-01,   5.0000E-01, Hf]
- [  5.0000E-01,  -4.9000E-07,   5.0000E-01, Hf]
- [  5.0000E-01,   5.0000E-01,   0.0000E+00, Hf]
- [  2.4623E-01,   2.4998E-01,   7.0148E-01,  O]
- [  2.4625E-01,   7.4998E-01,   7.9852E-01,  O]
- [  2.5374E-01,   7.5002E-01,   2.9852E-01,  O]
- [  2.5378E-01,   2.5002E-01,   2.0148E-01,  O]
- [  7.5377E-01,   2.4998E-01,   2.9852E-01,  O]
- [  7.5375E-01,   7.4998E-01,   2.0148E-01,  O]
- [  7.4626E-01,   7.5002E-01,   7.0148E-01,  O]
- [  7.4622E-01,   2.5002E-01,   7.9852E-01,  O]
cartesian_forces: # hartree/bohr
- [  0.00000000E+00,   3.75809399E-03,   0.00000000E+00, ]
- [  0.00000000E+00,   3.75750071E-03,   0.00000000E+00, ]
- [  0.00000000E+00,   3.75622233E-03,   0.00000000E+00, ]
- [  0.00000000E+00,   3.76457458E-03,   0.00000000E+00, ]
- [  2.41602469E-03,  -1.88688663E-03,   1.25777328E-04, ]
- [  2.41079571E-03,  -1.86587717E-03,  -1.19987055E-04, ]
- [ -2.43319830E-03,  -1.86426920E-03,  -1.24878389E-04, ]
- [ -2.44384423E-03,  -1.90116281E-03,   1.23579742E-04, ]
- [ -2.41602469E-03,  -1.88688663E-03,  -1.25777328E-04, ]
- [ -2.41079571E-03,  -1.86587717E-03,   1.19987055E-04, ]
- [  2.43319830E-03,  -1.86426920E-03,   1.24878389E-04, ]
- [  2.44384423E-03,  -1.90116281E-03,  -1.23579742E-04, ]
force_length_stats: {min:   3.05087372E-03, max:   3.76457458E-03, mean:   3.30062174E-03, }
...

 Integrated electronic density in atomic spheres:
 ------------------------------------------------
 Atom  Sphere_radius  Integrated_density
    1        2.00000          8.29998295
    2        2.00000          8.32344511
    3        2.00000          8.32344170
    4        2.00000          8.32364423
    5        2.00000          6.36731707
    6        2.00000          6.37616129
    7        2.00000          6.36797957
    8        2.00000          6.36737355
    9        2.00000          6.36731707
   10        2.00000          6.37616129
   11        2.00000          6.36797957
   12        2.00000          6.36737355
================================================================================
 
 ----iterations are completed or convergence reached----
 
 Mean square residual over all n,k,spin=   35.450E-08; max=  30.669E-05
 reduced coordinates (array xred) for   12 atoms
       0.000000000000     -0.000001680000      0.000000000000
       0.000000000000      0.500004720000      0.500000000000
       0.500000000000     -0.000000490000      0.500000000000
       0.500000000000      0.499997450000      0.000000000000
       0.246225780000      0.249984810000      0.701475060000
       0.246254830000      0.749984810000      0.798517850000
       0.253743460000      0.750015190000      0.298517100000
       0.253775940000      0.250015190000      0.201475810000
       0.753774220000      0.249984810000      0.298524940000
       0.753745170000      0.749984810000      0.201482150000
       0.746256540000      0.750015190000      0.701482900000
       0.746224060000      0.250015190000      0.798524190000
 rms dE/dt=  1.8366E-02; max dE/dt=  2.3440E-02; dE/dt below (all hartree)
    1       0.000000000000     -0.036069558006      0.000000000000
    2       0.000000000000     -0.036063867595      0.000000000000
    3       0.000000000000     -0.036051606044      0.000000000000
    4       0.000000000000     -0.036131716122      0.000000000000
    5      -0.023173140144      0.018073898166     -0.001206384872
    6      -0.023122986705      0.017872387344      0.001150847862
    7       0.023337859633      0.017856964654      0.001197762761
    8       0.023439969425      0.018210827203     -0.001185306876
    9       0.023173140144      0.018073898166      0.001206384872
   10       0.023122986705      0.017872387344     -0.001150847862
   11      -0.023337859633      0.017856964654     -0.001197762761
   12      -0.023439969425      0.018210827203      0.001185306876
 
 cartesian coordinates (angstrom) at end:
    1      0.00000000000000    -0.00000852695424     0.00000000000000
    2      0.00000000000000     2.53780795668096     2.53778400000000
    3      2.53778400000000    -0.00000248702832     2.53778400000000
    4      2.53778400000000     2.53777105730160     0.00000000000000
    5      1.24973568974304     1.26881490212208     3.56038436733408
    6      1.24988313499344     3.80659890212208     4.05293164688880
    7      1.28789218578528     3.80675309787792     1.51514384021280
    8      1.28805704023392     1.26896909787792     1.02260417401008
    9      3.82583231025696     1.26881490212208     1.51518363266592
   10      3.82568486500656     3.80659890212208     1.02263635311120
   11      3.78767581421472     3.80675309787792     3.56042415978720
   12      3.78751095976608     1.26896909787792     4.05296382598992
 
 cartesian forces (hartree/bohr) at end:
    1      0.00000000000000     0.00375809399378     0.00000000000000
    2      0.00000000000000     0.00375750071322     0.00000000000000
    3      0.00000000000000     0.00375622232762     0.00000000000000
    4      0.00000000000000     0.00376457458044     0.00000000000000
    5      0.00241602469231    -0.00188688662721     0.00012577732762
    6      0.00241079570975    -0.00186587716881    -0.00011998705549
    7     -0.00243319829722    -0.00186426920375    -0.00012487838883
    8     -0.00244384423370    -0.00190116280776     0.00012357974204
    9     -0.00241602469231    -0.00188688662721    -0.00012577732762
   10     -0.00241079570975    -0.00186587716881     0.00011998705549
   11      0.00243319829722    -0.00186426920375     0.00012487838883
   12      0.00244384423370    -0.00190116280776    -0.00012357974204
 frms,max,avg= 1.9148025E-03 3.7645746E-03   0.000E+00  2.507E-06  0.000E+00 h/b
 
 cartesian forces (eV/Angstrom) at end:
    1      0.00000000000000     0.19324894683060     0.00000000000000
    2      0.00000000000000     0.19321843911995     0.00000000000000
    3      0.00000000000000     0.19315270189473     0.00000000000000
    4      0.00000000000000     0.19358219196717     0.00000000000000
    5      0.12423697440215    -0.09702760338112     0.00646772968920
    6      0.12396808933055    -0.09594725368352    -0.00616998194956
    7     -0.12512007659888    -0.09586456880239    -0.00642150440153
    8     -0.12566751261746    -0.09776171403920     0.00635472530458
    9     -0.12423697440215    -0.09702760338112    -0.00646772968920
   10     -0.12396808933055    -0.09594725368352     0.00616998194956
   11      0.12512007659888    -0.09586456880239     0.00642150440153
   12      0.12566751261746    -0.09776171403920    -0.00635472530458
 frms,max,avg= 9.8463096E-02 1.9358219E-01   0.000E+00  1.289E-04  0.000E+00 e/A
 length scales=  9.591433488838  9.591433488838  9.591433488838 bohr
              =  5.075568000000  5.075568000000  5.075568000000 angstroms
 prteigrs : about to open file o_EIG
 Fermi (or HOMO) energy (hartree) =   0.27707   Average Vxc (hartree)=  -0.44601
 Eigenvalues (hartree) for nkpt= 112  k points:
 kpt#   1, nband= 50, wtk=  0.00463, kpt=  0.0000  0.0000  0.0000 (reduced coord)
  -1.94364   -1.94298   -1.94295   -1.94294   -0.80522   -0.80522   -0.80487   -0.79314
  -0.79310   -0.79278   -0.79275   -0.79146   -0.79145   -0.78859   -0.78695   -0.78695
  -0.39506   -0.33825   -0.32896   -0.32895   -0.31890   -0.31580   -0.31579   -0.29687
   0.06029    0.06030    0.07174    0.09583    0.10257    0.10258    0.16416    0.16431
   0.16643    0.16666    0.17273    0.17277    0.22358    0.22359    0.22791    0.22844
   0.24904    0.25000    0.25514    0.25557    0.25936    0.26620    0.26623    0.27514
   0.44256    0.44530
 prteigrs : prtvol=0 or 1, do not print more k-points.
 

--- !EnergyTerms
iteration_state     : {dtset: 1, }
comment             : Components of total free energy in Hartree
kinetic             :  1.46196803145045E+02
hartree             :  5.59271930046293E+01
xc                  : -9.09051062878785E+01
Ewald energy        : -2.70154158410061E+02
psp_core            :  1.49595106529080E+01
local_psp           : -2.05544991336058E+02
non_local_psp       : -9.11316856510452E+00
total_energy        : -3.58633917796520E+02
total_energy_eV     : -9.75892520237679E+03
band_energy         : -3.10969956258665E+01
...

 
 Cartesian components of stress tensor (hartree/bohr^3)
  sigma(1 1)= -1.74682045E-04  sigma(3 2)=  0.00000000E+00
  sigma(2 2)= -1.75857330E-04  sigma(3 1)=  1.94203416E-08
  sigma(3 3)= -4.77989321E-04  sigma(2 1)=  0.00000000E+00
 
-Cartesian components of stress tensor (GPa)         [Pressure=  8.1254E+00 GPa]
- sigma(1 1)= -5.13932232E+00  sigma(3 2)=  0.00000000E+00
- sigma(2 2)= -5.17390039E+00  sigma(3 1)=  5.71366080E-04
- sigma(3 3)= -1.40629290E+01  sigma(2 1)=  0.00000000E+00
 
== END DATASET(S) ==============================================================
================================================================================
  
 -outvars: echo values of variables after computation  --------
            acell      9.5914334888E+00  9.5914334888E+00  9.5914334888E+00 Bohr
              amu      1.78490000E+02  1.59994000E+01
          chkprim           0
             ecut      2.50000000E+01 Hartree
           ecutsm      5.00000000E-01 Hartree
           etotal     -3.5863391780E+02
            fcart      0.0000000000E+00  3.7580939938E-03  0.0000000000E+00
                       0.0000000000E+00  3.7575007132E-03  0.0000000000E+00
                       0.0000000000E+00  3.7562223276E-03  0.0000000000E+00
                       0.0000000000E+00  3.7645745804E-03  0.0000000000E+00
                       2.4160246923E-03 -1.8868866272E-03  1.2577732762E-04
                       2.4107957098E-03 -1.8658771688E-03 -1.1998705549E-04
                      -2.4331982972E-03 -1.8642692037E-03 -1.2487838883E-04
                      -2.4438442337E-03 -1.9011628078E-03  1.2357974204E-04
                      -2.4160246923E-03 -1.8868866272E-03 -1.2577732762E-04
                      -2.4107957098E-03 -1.8658771688E-03  1.1998705549E-04
                       2.4331982972E-03 -1.8642692037E-03  1.2487838883E-04
                       2.4438442337E-03 -1.9011628078E-03 -1.2357974204E-04
-          fftalg         512
           istwfk        2    0    0    3    0    0    0    0    0    0
                         0    0    0    0    0    0    6    0    0    7
                         0    0    0    0    0    0    0    0    0    0
                         0    0    0    0    0    0    0    0    0    0
                         0    0    0    0    0    0    0    0    0    0
                       outvar_i_n : Printing only first  50 k-points.
              ixc          11
              kpt      0.00000000E+00  0.00000000E+00  0.00000000E+00
                       1.66666667E-01  0.00000000E+00  0.00000000E+00
                       3.33333333E-01  0.00000000E+00  0.00000000E+00
                       5.00000000E-01  0.00000000E+00  0.00000000E+00
                       0.00000000E+00  1.66666667E-01  0.00000000E+00
                       1.66666667E-01  1.66666667E-01  0.00000000E+00
                       3.33333333E-01  1.66666667E-01  0.00000000E+00
                       5.00000000E-01  1.66666667E-01  0.00000000E+00
                      -3.33333333E-01  1.66666667E-01  0.00000000E+00
                      -1.66666667E-01  1.66666667E-01  0.00000000E+00
                       0.00000000E+00  3.33333333E-01  0.00000000E+00
                       1.66666667E-01  3.33333333E-01  0.00000000E+00
                       3.33333333E-01  3.33333333E-01  0.00000000E+00
                       5.00000000E-01  3.33333333E-01  0.00000000E+00
                      -3.33333333E-01  3.33333333E-01  0.00000000E+00
                      -1.66666667E-01  3.33333333E-01  0.00000000E+00
                       0.00000000E+00  5.00000000E-01  0.00000000E+00
                       1.66666667E-01  5.00000000E-01  0.00000000E+00
                       3.33333333E-01  5.00000000E-01  0.00000000E+00
                       5.00000000E-01  5.00000000E-01  0.00000000E+00
                       0.00000000E+00  0.00000000E+00  1.66666667E-01
                       1.66666667E-01  0.00000000E+00  1.66666667E-01
                       3.33333333E-01  0.00000000E+00  1.66666667E-01
                       5.00000000E-01  0.00000000E+00  1.66666667E-01
                      -3.33333333E-01  0.00000000E+00  1.66666667E-01
                      -1.66666667E-01  0.00000000E+00  1.66666667E-01
                       0.00000000E+00  1.66666667E-01  1.66666667E-01
                       1.66666667E-01  1.66666667E-01  1.66666667E-01
                       3.33333333E-01  1.66666667E-01  1.66666667E-01
                       5.00000000E-01  1.66666667E-01  1.66666667E-01
                      -3.33333333E-01  1.66666667E-01  1.66666667E-01
                      -1.66666667E-01  1.66666667E-01  1.66666667E-01
                       0.00000000E+00  3.33333333E-01  1.66666667E-01
                       1.66666667E-01  3.33333333E-01  1.66666667E-01
                       3.33333333E-01  3.33333333E-01  1.66666667E-01
                       5.00000000E-01  3.33333333E-01  1.66666667E-01
                      -3.33333333E-01  3.33333333E-01  1.66666667E-01
                      -1.66666667E-01  3.33333333E-01  1.66666667E-01
                       0.00000000E+00  5.00000000E-01  1.66666667E-01
                       1.66666667E-01  5.00000000E-01  1.66666667E-01
                       3.33333333E-01  5.00000000E-01  1.66666667E-01
                       5.00000000E-01  5.00000000E-01  1.66666667E-01
                      -3.33333333E-01  5.00000000E-01  1.66666667E-01
                      -1.66666667E-01  5.00000000E-01  1.66666667E-01
                       0.00000000E+00 -3.33333333E-01  1.66666667E-01
                       1.66666667E-01 -3.33333333E-01  1.66666667E-01
                       3.33333333E-01 -3.33333333E-01  1.66666667E-01
                       5.00000000E-01 -3.33333333E-01  1.66666667E-01
                      -3.33333333E-01 -3.33333333E-01  1.66666667E-01
                      -1.66666667E-01 -3.33333333E-01  1.66666667E-01
                       outvar_i_n : Printing only first  50 k-points.
           kptopt           2
         kptrlatt        6    0    0      0    6    0      0    0    6
          kptrlen      5.75486009E+01
P           mkmem           4
            natom          12
            nband          50
            ngfft          45      45      45
             nkpt         112
            nstep         100
             nsym           2
           ntypat           2
              occ      2.000000  2.000000  2.000000  2.000000  2.000000  2.000000
                       2.000000  2.000000  2.000000  2.000000  2.000000  2.000000
                       2.000000  2.000000  2.000000  2.000000  2.000000  2.000000
                       2.000000  2.000000  2.000000  2.000000  2.000000  2.000000
                       2.000000  2.000000  2.000000  2.000000  2.000000  2.000000
                       2.000000  2.000000  2.000000  2.000000  2.000000  2.000000
                       2.000000  2.000000  2.000000  2.000000  2.000000  2.000000
                       2.000000  2.000000  2.000000  2.000000  2.000000  2.000000
                       0.000000  0.000000
        pawecutdg      2.50000000E+01 Hartree
         pawxcdev           0
          spgroup           3
           strten     -1.7468204471E-04 -1.7585732956E-04 -4.7798932055E-04
                       0.0000000000E+00  1.9420341605E-08  0.0000000000E+00
        symmorphi           0
           symrel      1  0  0   0  1  0   0  0  1      -1  0  0   0  1  0   0  0 -1
           tolmxf      1.00000000E-05
           tolvrs      1.00000000E-18
           tsmear      4.00000000E-02 Hartree
            typat      1  1  1  1  2  2  2  2  2  2  2  2
              wtk        0.00463    0.00926    0.00926    0.00463    0.00926    0.00926
                         0.00926    0.00926    0.00926    0.00926    0.00926    0.00926
                         0.00926    0.00926    0.00926    0.00926    0.00463    0.00926
                         0.00926    0.00463    0.00926    0.00926    0.00926    0.00926
                         0.00926    0.00926    0.00926    0.00926    0.00926    0.00926
                         0.00926    0.00926    0.00926    0.00926    0.00926    0.00926
                         0.00926    0.00926    0.00926    0.00926    0.00926    0.00926
                         0.00926    0.00926    0.00926    0.00926    0.00926    0.00926
                         0.00926    0.00926
                       outvars : Printing only first  50 k-points.
           xangst      0.0000000000E+00 -8.5269542400E-06  0.0000000000E+00
                       0.0000000000E+00  2.5378079567E+00  2.5377840000E+00
                       2.5377840000E+00 -2.4870283200E-06  2.5377840000E+00
                       2.5377840000E+00  2.5377710573E+00  0.0000000000E+00
                       1.2497356897E+00  1.2688149021E+00  3.5603843673E+00
                       1.2498831350E+00  3.8065989021E+00  4.0529316469E+00
                       1.2878921858E+00  3.8067530979E+00  1.5151438402E+00
                       1.2880570402E+00  1.2689690979E+00  1.0226041740E+00
                       3.8258323103E+00  1.2688149021E+00  1.5151836327E+00
                       3.8256848650E+00  3.8065989021E+00  1.0226363531E+00
                       3.7876758142E+00  3.8067530979E+00  3.5604241598E+00
                       3.7875109598E+00  1.2689690979E+00  4.0529638260E+00
            xcart      0.0000000000E+00 -1.6113608261E-05  0.0000000000E+00
                       0.0000000000E+00  4.7957620160E+00  4.7957167444E+00
                       4.7957167444E+00 -4.6998024095E-06  4.7957167444E+00
                       4.7957167444E+00  4.7956922863E+00  0.0000000000E+00
                       2.3616581921E+00  2.3977126783E+00  6.7281513821E+00
                       2.3619368233E+00  7.1934294228E+00  7.6589308479E+00
                       2.4337635198E+00  7.1937208105E+00  2.8632069099E+00
                       2.4340750496E+00  2.3980040661E+00  1.9324418312E+00
                       7.2297752967E+00  2.3977126783E+00  2.8632821068E+00
                       7.2294966656E+00  7.1934294228E+00  1.9325026409E+00
                       7.1576699690E+00  7.1937208105E+00  6.7282265789E+00
                       7.1573584393E+00  2.3980040661E+00  7.6589916576E+00
             xred      0.0000000000E+00 -1.6800000000E-06  0.0000000000E+00
                       0.0000000000E+00  5.0000472000E-01  5.0000000000E-01
                       5.0000000000E-01 -4.9000000000E-07  5.0000000000E-01
                       5.0000000000E-01  4.9999745000E-01  0.0000000000E+00
                       2.4622578000E-01  2.4998481000E-01  7.0147506000E-01
                       2.4625483000E-01  7.4998481000E-01  7.9851785000E-01
                       2.5374346000E-01  7.5001519000E-01  2.9851710000E-01
                       2.5377594000E-01  2.5001519000E-01  2.0147581000E-01
                       7.5377422000E-01  2.4998481000E-01  2.9852494000E-01
                       7.5374517000E-01  7.4998481000E-01  2.0148215000E-01
                       7.4625654000E-01  7.5001519000E-01  7.0148290000E-01
                       7.4622406000E-01  2.5001519000E-01  7.9852419000E-01
            znucl       72.00000    8.00000
 
================================================================================


- Timing analysis has been suppressed with timopt=0



================================================================================

 Suggested references for the acknowledgment of ABINIT usage.

 The users of ABINIT have little formal obligations with respect to the ABINIT group
 (those specified in the GNU General Public License, http://www.gnu.org/copyleft/gpl.txt).
 However, it is common practice in the scientific literature,
 to acknowledge the efforts of people that have made the research possible.
 In this spirit, please find below suggested citations of work written by ABINIT developers,
 corresponding to implementations inside of ABINIT that you have used in the present run.
 Note also that it will be of great value to readers of publications presenting these results,
 to read papers enabling them to understand the theoretical formalism and details
 of the ABINIT implementation.
 For information on why they are suggested, see also https://docs.abinit.org/theory/acknowledgments.
-
- [1] Specification of an extensible and portable file format for electronic structure and crystallographic data
- X. Gonze, C.-O. Almbladh, A. Cucca, D. Caliste, C. Freysoldt, M. Marques, V. Olevano, Y. Pouillon, M.J. Verstraete,
- Comput. Material Science 43, 1056 (2008).
- Comment: to be cited in case the ETSF_IO file format is used, i.e. iomode=3.
- DOI and bibtex: see https://docs.abinit.org/theory/bibliography/#gonze2008
-
- [2] The Abinit project: Impact, environment and recent developments.
- Computer Phys. Comm. 248, 107042 (2020).
- X.Gonze, B. Amadon, G. Antonius, F.Arnardi, L.Baguet, J.-M.Beuken,
- J.Bieder, F.Bottin, J.Bouchet, E.Bousquet, N.Brouwer, F.Bruneval,
- G.Brunin, T.Cavignac, J.-B. Charraud, Wei Chen, M.Cote, S.Cottenier,
- J.Denier, G.Geneste, Ph.Ghosez, M.Giantomassi, Y.Gillet, O.Gingras,
- D.R.Hamann, G.Hautier, Xu He, N.Helbig, N.Holzwarth, Y.Jia, F.Jollet,
- W.Lafargue-Dit-Hauret, K.Lejaeghere, M.A.L.Marques, A.Martin, C.Martins,
- H.P.C. Miranda, F.Naccarato, K. Persson, G.Petretto, V.Planes, Y.Pouillon,
- S.Prokhorenko, F.Ricci, G.-M.Rignanese, A.H.Romero, M.M.Schmitt, M.Torrent,
- M.J.van Setten, B.Van Troeye, M.J.Verstraete, G.Zerah and J.W.Zwanzig
- Comment: the fifth generic paper describing the ABINIT project.
- Note that a version of this paper, that is not formatted for Computer Phys. Comm. 
- is available at https://www.abinit.org/sites/default/files/ABINIT20.pdf .
- The licence allows the authors to put it on the Web.
- DOI and bibtex: see https://docs.abinit.org/theory/bibliography/#gonze2020
-
- [3] Optimized norm-conserving Vanderbilt pseudopotentials.
- D.R. Hamann, Phys. Rev. B 88, 085117 (2013).
- Comment: Some pseudopotential generated using the ONCVPSP code were used.
- DOI and bibtex: see https://docs.abinit.org/theory/bibliography/#hamann2013
-
- [4] ABINIT: Overview, and focus on selected capabilities
- J. Chem. Phys. 152, 124102 (2020).
- A. Romero, D.C. Allan, B. Amadon, G. Antonius, T. Applencourt, L.Baguet,
- J.Bieder, F.Bottin, J.Bouchet, E.Bousquet, F.Bruneval,
- G.Brunin, D.Caliste, M.Cote,
- J.Denier, C. Dreyer, Ph.Ghosez, M.Giantomassi, Y.Gillet, O.Gingras,
- D.R.Hamann, G.Hautier, F.Jollet, G. Jomard,
- A.Martin, 
- H.P.C. Miranda, F.Naccarato, G.Petretto, N.A. Pike, V.Planes,
- S.Prokhorenko, T. Rangel, F.Ricci, G.-M.Rignanese, M.Royo, M.Stengel, M.Torrent,
- M.J.van Setten, B.Van Troeye, M.J.Verstraete, J.Wiktor, J.W.Zwanziger, and X.Gonze.
- Comment: a global overview of ABINIT, with focus on selected capabilities .
- Note that a version of this paper, that is not formatted for J. Chem. Phys 
- is available at https://www.abinit.org/sites/default/files/ABINIT20_JPC.pdf .
- The licence allows the authors to put it on the Web.
- DOI and bibtex: see https://docs.abinit.org/theory/bibliography/#romero2020
-
- [5] Recent developments in the ABINIT software package.
- Computer Phys. Comm. 205, 106 (2016).
- X.Gonze, F.Jollet, F.Abreu Araujo, D.Adams, B.Amadon, T.Applencourt,
- C.Audouze, J.-M.Beuken, J.Bieder, A.Bokhanchuk, E.Bousquet, F.Bruneval
- D.Caliste, M.Cote, F.Dahm, F.Da Pieve, M.Delaveau, M.Di Gennaro,
- B.Dorado, C.Espejo, G.Geneste, L.Genovese, A.Gerossier, M.Giantomassi,
- Y.Gillet, D.R.Hamann, L.He, G.Jomard, J.Laflamme Janssen, S.Le Roux,
- A.Levitt, A.Lherbier, F.Liu, I.Lukacevic, A.Martin, C.Martins,
- M.J.T.Oliveira, S.Ponce, Y.Pouillon, T.Rangel, G.-M.Rignanese,
- A.H.Romero, B.Rousseau, O.Rubel, A.A.Shukri, M.Stankovski, M.Torrent,
- M.J.Van Setten, B.Van Troeye, M.J.Verstraete, D.Waroquier, J.Wiktor,
- B.Xu, A.Zhou, J.W.Zwanziger.
- Comment: the fourth generic paper describing the ABINIT project.
- Note that a version of this paper, that is not formatted for Computer Phys. Comm. 
- is available at https://www.abinit.org/sites/default/files/ABINIT16.pdf .
- The licence allows the authors to put it on the Web.
- DOI and bibtex: see https://docs.abinit.org/theory/bibliography/#gonze2016
-
- Proc.   0 individual time (sec): cpu=        118.0  wall=        121.4
 
================================================================================
 
 Calculation completed.
.Delivered   0 WARNINGs and   0 COMMENTs to log file.
+Overall time at end (sec) : cpu=       4310.1  wall=       4369.9
